 vasp.6.3.0 20Jan22 (build Jul 10 2024 08:55:24) complex                        
  
 executed on             LinuxIFC date 2024.11.04  21:07:27
 running   64 mpi-ranks, with    1 threads/rank
 distrk:  each k-point on   64 cores,    1 groups
 distr:  one band on NCORE=   8 cores,    8 groups


--------------------------------------------------------------------------------------------------------


 INCAR:
   SYSTEM = MoSe2
   PREC = Accurate
   ISPIN = 1
   ISTART = 0
   ICHARG = 1
   NPAR = 8
   ISMEAR = 0
   SIGMA = 0.1
   NELMIN = 4
   NELM = 200
   EDIFF = 1E-6
   MAGMOM = 0 0 1 6*0
   IBRION = -1
   LORBIT = 11
   LWAVE = .TRUE.
   LCHARG = .FALSE.
   LSORBIT = .TRUE.
   LHFCALC = .TRUE.
   HFSCREEN = 0.2
   AEXX = 0.25
   ALGO = D
   TIME = 0.4
   LDIAG = .TRUE.

 POTCAR:    PAW_PBE Mo 08Apr2002                  
 POTCAR:    PAW_PBE Se 06Sep2000                  
 POTCAR:    PAW_PBE Mo 08Apr2002                  
   VRHFIN =Mo: 4p5s4d                                                                               
   LEXCH  = PE                                                                                      
   EATOM  =   217.5176 eV,   15.9871 Ry                                                             
                                                                                                    
   TITEL  = PAW_PBE Mo 08Apr2002                                                                    
   LULTRA =        F    use ultrasoft PP ?                                                          
   IUNSCR =        1    unscreen: 0-lin 1-nonlin 2-no                                               
   RPACOR =    2.200    partial core radius                                                         
   POMASS =   95.940; ZVAL   =    6.000    mass and valenz                                          
   RCORE  =    2.750    outmost cutoff radius                                                       
   RWIGS  =    2.750; RWIGS  =    1.455    wigner-seitz radius (au A)                               
   ENMAX  =  224.584; ENMIN  =  168.438 eV                                                          
   RCLOC  =    2.111    cutoff for local pot                                                        
   LCOR   =        T    correct aug charges                                                         
   LPAW   =        T    paw PP                                                                      
   EAUG   =  345.278                                                                                
   DEXC   =    0.000                                                                                
   RMAX   =    2.821    core radius for proj-oper                                                   
   RAUG   =    1.300    factor for augmentation sphere                                              
   RDEP   =    2.815    radius for radial grids                                                     
   RDEPT  =    2.211    core radius for aug-charge                                                  
                                                                                                    
   Atomic configuration                                                                             
   12 entries                                                                                       
     n  l   j            E        occ.                                                              
     1  0  0.50    -19819.0341   2.0000                                                             
     2  0  0.50     -2799.0127   2.0000                                                             
     2  1  1.50     -2502.0276   6.0000                                                             
     3  0  0.50      -476.4448   2.0000                                                             
     3  1  1.50      -379.1496   6.0000                                                             
     3  2  2.50      -220.9367  10.0000                                                             
     4  0  0.50       -64.3378   2.0000                                                             
     4  1  1.50       -38.4773   6.0000                                                             
     4  2  2.50        -3.7535   5.0000                                                             
     5  0  0.50        -4.0862   1.0000                                                             
     5  1  0.50        -2.7701   0.0000                                                             
     4  3  2.50        -1.3606   0.0000                                                             
   Description                                                                                      
     l       E           TYP  RCUT    TYP  RCUT                                                     
     2     -3.7534765     23  2.500                                                                 
     2     -5.1140591     23  2.500                                                                 
     0     -4.0861560     23  2.600                                                                 
     0     13.6058260     23  2.600                                                                 
     1      5.4423304     23  2.750                                                                 
     1     27.2116520     23  2.750                                                                 
  local pseudopotential read in
  partial core-charges read in
  partial kinetic energy density read in
  atomic valenz-charges read in
  non local Contribution for L=           2  read in
    real space projection operators read in
  non local Contribution for L=           2  read in
    real space projection operators read in
  non local Contribution for L=           0  read in
    real space projection operators read in
  non local Contribution for L=           0  read in
    real space projection operators read in
  non local Contribution for L=           1  read in
    real space projection operators read in
  non local Contribution for L=           1  read in
    real space projection operators read in
    PAW grid and wavefunctions read in
 
   number of l-projection  operators is LMAX  =           6
   number of lm-projection operators is LMMAX =          18
 
 POTCAR:    PAW_PBE Se 06Sep2000                  
   VRHFIN =Se: s2p4                                                                                 
   LEXCH  = PE                                                                                      
   EATOM  =   257.1286 eV,   18.8984 Ry                                                             
                                                                                                    
   TITEL  = PAW_PBE Se 06Sep2000                                                                    
   LULTRA =        F    use ultrasoft PP ?                                                          
   IUNSCR =        1    unscreen: 0-lin 1-nonlin 2-no                                               
   RPACOR =    1.900    partial core radius                                                         
   POMASS =   78.960; ZVAL   =    6.000    mass and valenz                                          
   RCORE  =    2.100    outmost cutoff radius                                                       
   RWIGS  =    2.200; RWIGS  =    1.164    wigner-seitz radius (au A)                               
   ENMAX  =  211.555; ENMIN  =  158.666 eV                                                          
   ICORE  =        3    local potential                                                             
   LCOR   =        T    correct aug charges                                                         
   LPAW   =        T    paw PP                                                                      
   EAUG   =  446.842                                                                                
   DEXC   =    0.000                                                                                
   RMAX   =    2.147    core radius for proj-oper                                                   
   RAUG   =    1.300    factor for augmentation sphere                                              
   RDEP   =    2.177    radius for radial grids                                                     
   RDEPT  =    1.928    core radius for aug-charge                                                  
                                                                                                    
   Atomic configuration                                                                             
   10 entries                                                                                       
     n  l   j            E        occ.                                                              
     1  0  0.50    -12503.4787   2.0000                                                             
     2  0  0.50     -1606.9547   2.0000                                                             
     2  1  1.50     -1413.3140   6.0000                                                             
     3  0  0.50      -213.4885   2.0000                                                             
     3  1  1.50      -152.9538   6.0000                                                             
     3  2  2.50       -53.1221  10.0000                                                             
     4  0  0.50       -17.2865   2.0000                                                             
     4  1  0.50        -6.5110   4.0000                                                             
     4  2  2.50        -6.8029   0.0000                                                             
     4  3  2.50        -6.8029   0.0000                                                             
   Description                                                                                      
     l       E           TYP  RCUT    TYP  RCUT                                                     
     0    -17.2865377     23  2.100                                                                 
     0    -15.3094411     23  2.100                                                                 
     1     -6.5110275     23  2.100                                                                 
     1     -0.0695192     23  2.100                                                                 
     2     -6.8029130     23  2.100                                                                 
     3     -1.3605826      7  2.100                                                                 
  local pseudopotential read in
  partial core-charges read in
  partial kinetic energy density read in
  atomic valenz-charges read in
  non local Contribution for L=           0  read in
    real space projection operators read in
  non local Contribution for L=           0  read in
    real space projection operators read in
  non local Contribution for L=           1  read in
    real space projection operators read in
  non local Contribution for L=           1  read in
    real space projection operators read in
  non local Contribution for L=           2  read in
    real space projection operators read in
    PAW grid and wavefunctions read in
 
   number of l-projection  operators is LMAX  =           5
   number of lm-projection operators is LMMAX =          13
 
  PAW_PBE Mo 08Apr2002                  :
 energy of atom  1       EATOM= -217.5176
 kinetic energy error for atom=    0.0303 (will be added to EATOM!!)
  PAW_PBE Se 06Sep2000                  :
 energy of atom  2       EATOM= -257.1286
 kinetic energy error for atom=    0.0119 (will be added to EATOM!!)
 
 
 POSCAR: Mo  S
  positions in direct lattice
  velocities in cartesian coordinates
 exchange correlation table for  LEXCH =        8
   RHO(1)=    0.500       N(1)  =     2000
   RHO(2)=  100.500       N(2)  =     4000
 


--------------------------------------------------------------------------------------------------------


 ion  position               nearest neighbor table
   1  0.656  0.328  0.500-   3 2.54   2 2.54   2 2.54   3 2.54   3 2.54   2 2.54
   2  0.990  0.995  0.389-   1 2.54   1 2.54   1 2.54
   3  0.990  0.995  0.612-   1 2.54   1 2.54   1 2.54
 
  LATTYP: Found a hexagonal cell.
 ALAT       =     3.3200000000
 C/A-ratio  =     4.5180722892
  
  Lattice vectors:
  
 A1 = (   3.3200000000,   0.0000000000,   0.0000000000)
 A2 = (  -1.6600000000,   2.8752043406,   0.0000000000)
 A3 = (   0.0000000000,   0.0000000000,  15.0000000000)


Analysis of symmetry for initial positions (statically):
=====================================================================
 Subroutine PRICEL returns:
 Original cell was already a primitive cell.
 

 Routine SETGRP: Setting up the symmetry group for a 
 hexagonal supercell.


 Subroutine GETGRP returns: Found  2 space group operations
 (whereof  2 operations were pure point group operations)
 out of a pool of 24 trial point group operations.


The static configuration has the point symmetry C_1h.


Analysis of symmetry for dynamics (positions and initial velocities):
=====================================================================
 Subroutine PRICEL returns:
 Original cell was already a primitive cell.
 

 Routine SETGRP: Setting up the symmetry group for a 
 hexagonal supercell.


 Subroutine GETGRP returns: Found  2 space group operations
 (whereof  2 operations were pure point group operations)
 out of a pool of 24 trial point group operations.


The dynamic configuration has the point symmetry C_1h.


Analysis of structural, dynamic, and magnetic symmetry:
=====================================================================
 Subroutine PRICEL returns:
 Original cell was already a primitive cell.
 

 Routine SETGRP: Setting up the symmetry group for a 
 hexagonal supercell.


 Subroutine GETGRP returns: Found  1 space group operations
 (whereof  1 operations were pure point group operations)
 out of a pool of 24 trial point group operations.


The overall configuration has the point symmetry C_1 .


 Subroutine INISYM returns: Found  1 space group operations
 (whereof  1 operations are pure point group operations),
 and found     1 'primitive' translations


----------------------------------------------------------------------------------------

                                     Primitive cell                                     

  volume of cell :     143.1852

  direct lattice vectors                    reciprocal lattice vectors
     3.320000000  0.000000000  0.000000000     0.301204819  0.173900683  0.000000000
    -1.660000000  2.875204341  0.000000000     0.000000000  0.347801367  0.000000000
     0.000000000  0.000000000 15.000000000     0.000000000  0.000000000  0.066666667

  length of vectors
     3.320000000  3.320000000 15.000000000     0.347801367  0.347801367  0.066666667

  position of ions in fractional coordinates (direct lattice)
     0.656360473  0.328183185  0.500455147
     0.989670353  0.994833693  0.389220100
     0.989712767  0.994854919  0.611690486

  ion indices of the primitive-cell ions
   primitive index   ion index
                 1           1
                 2           2
                 3           3

----------------------------------------------------------------------------------------

 
 
 KPOINTS: Automatically generated mesh            

Read explicit list of k-points.

 Found    201 k-points:

 Following reciprocal coordinates:
            Coordinates               Weight
  0.000000  0.000000  0.000000      0.012346
  0.111111  0.000000  0.000000      0.012346
 -0.111111  0.000000  0.000000      0.012346
  0.000000  0.111111  0.000000      0.012346
  0.000000 -0.111111  0.000000      0.012346
 -0.111111  0.111111  0.000000      0.012346
  0.111111 -0.111111  0.000000      0.012346
  0.222222  0.000000  0.000000      0.012346
 -0.222222  0.000000  0.000000      0.012346
  0.000000  0.222222  0.000000      0.012346
  0.000000 -0.222222  0.000000      0.012346
 -0.222222  0.222222  0.000000      0.012346
  0.222222 -0.222222  0.000000      0.012346
  0.333333  0.000000  0.000000      0.012346
 -0.333333  0.000000  0.000000      0.012346
  0.000000  0.333333  0.000000      0.012346
  0.000000 -0.333333  0.000000      0.012346
 -0.333333  0.333333  0.000000      0.012346
  0.333333 -0.333333  0.000000      0.012346
  0.444444  0.000000  0.000000      0.012346
 -0.444444  0.000000  0.000000      0.012346
  0.000000  0.444444  0.000000      0.012346
  0.000000 -0.444444  0.000000      0.012346
 -0.444444  0.444444  0.000000      0.012346
  0.444444 -0.444444  0.000000      0.012346
  0.111111  0.111111  0.000000      0.012346
 -0.111111 -0.111111  0.000000      0.012346
 -0.111111  0.222222  0.000000      0.012346
  0.111111 -0.222222  0.000000      0.012346
 -0.222222  0.111111  0.000000      0.012346
  0.222222 -0.111111  0.000000      0.012346
  0.222222  0.111111  0.000000      0.012346
 -0.222222 -0.111111  0.000000      0.012346
 -0.111111  0.333333  0.000000      0.012346
  0.111111 -0.333333  0.000000      0.012346
 -0.333333  0.222222  0.000000      0.012346
  0.333333 -0.222222  0.000000      0.012346
 -0.222222  0.333333  0.000000      0.012346
  0.222222 -0.333333  0.000000      0.012346
  0.111111  0.222222  0.000000      0.012346
 -0.111111 -0.222222  0.000000      0.012346
  0.333333 -0.111111  0.000000      0.012346
 -0.333333  0.111111  0.000000      0.012346
  0.333333  0.111111  0.000000      0.012346
 -0.333333 -0.111111  0.000000      0.012346
 -0.111111  0.444444  0.000000      0.012346
  0.111111 -0.444444  0.000000      0.012346
 -0.444444  0.333333  0.000000      0.012346
  0.444444 -0.333333  0.000000      0.012346
 -0.333333  0.444444  0.000000      0.012346
  0.333333 -0.444444  0.000000      0.012346
  0.111111  0.333333  0.000000      0.012346
 -0.111111 -0.333333  0.000000      0.012346
  0.444444 -0.111111  0.000000      0.012346
 -0.444444  0.111111  0.000000      0.012346
  0.444444  0.111111  0.000000      0.012346
 -0.444444 -0.111111  0.000000      0.012346
 -0.111111 -0.444444  0.000000      0.012346
  0.111111  0.444444  0.000000      0.012346
  0.444444  0.444444  0.000000      0.012346
 -0.444444 -0.444444  0.000000      0.012346
  0.222222  0.222222  0.000000      0.012346
 -0.222222 -0.222222  0.000000      0.012346
 -0.222222  0.444444  0.000000      0.012346
  0.222222 -0.444444  0.000000      0.012346
 -0.444444  0.222222  0.000000      0.012346
  0.444444 -0.222222  0.000000      0.012346
  0.333333  0.222222  0.000000      0.012346
 -0.333333 -0.222222  0.000000      0.012346
 -0.222222 -0.444444  0.000000      0.012346
  0.222222  0.444444  0.000000      0.012346
  0.444444  0.333333  0.000000      0.012346
 -0.444444 -0.333333  0.000000      0.012346
 -0.333333 -0.444444  0.000000      0.012346
  0.333333  0.444444  0.000000      0.012346
  0.222222  0.333333  0.000000      0.012346
 -0.222222 -0.333333  0.000000      0.012346
 -0.444444 -0.222222  0.000000      0.012346
  0.444444  0.222222  0.000000      0.012346
  0.333333  0.333333  0.000000      0.012346
 -0.333333 -0.333333  0.000000      0.012346
  0.000000  0.000000  0.000000      0.000000
  0.008547  0.008547  0.000000      0.000000
  0.017094  0.017094  0.000000      0.000000
  0.025641  0.025641  0.000000      0.000000
  0.034188  0.034188  0.000000      0.000000
  0.042735  0.042735  0.000000      0.000000
  0.051282  0.051282  0.000000      0.000000
  0.059829  0.059829  0.000000      0.000000
  0.068376  0.068376  0.000000      0.000000
  0.076923  0.076923  0.000000      0.000000
  0.085470  0.085470  0.000000      0.000000
  0.094017  0.094017  0.000000      0.000000
  0.102564  0.102564  0.000000      0.000000
  0.111111  0.111111  0.000000      0.000000
  0.119658  0.119658  0.000000      0.000000
  0.128205  0.128205  0.000000      0.000000
  0.136752  0.136752  0.000000      0.000000
  0.145299  0.145299  0.000000      0.000000
  0.153846  0.153846  0.000000      0.000000
  0.162393  0.162393  0.000000      0.000000
  0.170940  0.170940  0.000000      0.000000
  0.179487  0.179487  0.000000      0.000000
  0.188034  0.188034  0.000000      0.000000
  0.196581  0.196581  0.000000      0.000000
  0.205128  0.205128  0.000000      0.000000
  0.213675  0.213675  0.000000      0.000000
  0.222222  0.222222  0.000000      0.000000
  0.230769  0.230769  0.000000      0.000000
  0.239316  0.239316  0.000000      0.000000
  0.247863  0.247863  0.000000      0.000000
  0.256410  0.256410  0.000000      0.000000
  0.264957  0.264957  0.000000      0.000000
  0.273504  0.273504  0.000000      0.000000
  0.282051  0.282051  0.000000      0.000000
  0.290598  0.290598  0.000000      0.000000
  0.299145  0.299145  0.000000      0.000000
  0.307692  0.307692  0.000000      0.000000
  0.316239  0.316239  0.000000      0.000000
  0.324786  0.324786  0.000000      0.000000
  0.333333  0.333333  0.000000      0.000000
  0.333333  0.333333  0.000000      0.000000
  0.316239  0.341880  0.000000      0.000000
  0.299145  0.350427  0.000000      0.000000
  0.282051  0.358974  0.000000      0.000000
  0.264957  0.367521  0.000000      0.000000
  0.247863  0.376068  0.000000      0.000000
  0.230769  0.384615  0.000000      0.000000
  0.213675  0.393162  0.000000      0.000000
  0.196581  0.401709  0.000000      0.000000
  0.179487  0.410256  0.000000      0.000000
  0.162393  0.418803  0.000000      0.000000
  0.145299  0.427350  0.000000      0.000000
  0.128205  0.435897  0.000000      0.000000
  0.111111  0.444444  0.000000      0.000000
  0.094017  0.452991  0.000000      0.000000
  0.076923  0.461538  0.000000      0.000000
  0.059829  0.470085  0.000000      0.000000
  0.042735  0.478632  0.000000      0.000000
  0.025641  0.487179  0.000000      0.000000
  0.008547  0.495726  0.000000      0.000000
 -0.008547  0.504274  0.000000      0.000000
 -0.025641  0.512821  0.000000      0.000000
 -0.042735  0.521368  0.000000      0.000000
 -0.059829  0.529915  0.000000      0.000000
 -0.076923  0.538462  0.000000      0.000000
 -0.094017  0.547009  0.000000      0.000000
 -0.111111  0.555556  0.000000      0.000000
 -0.128205  0.564103  0.000000      0.000000
 -0.145299  0.572650  0.000000      0.000000
 -0.162393  0.581197  0.000000      0.000000
 -0.179487  0.589744  0.000000      0.000000
 -0.196581  0.598291  0.000000      0.000000
 -0.213675  0.606838  0.000000      0.000000
 -0.230769  0.615385  0.000000      0.000000
 -0.247863  0.623932  0.000000      0.000000
 -0.264957  0.632479  0.000000      0.000000
 -0.282051  0.641026  0.000000      0.000000
 -0.299145  0.649573  0.000000      0.000000
 -0.316239  0.658120  0.000000      0.000000
 -0.333333  0.666667  0.000000      0.000000
 -0.333333  0.666667  0.000000      0.000000
 -0.324786  0.649573  0.000000      0.000000
 -0.316239  0.632479  0.000000      0.000000
 -0.307692  0.615385  0.000000      0.000000
 -0.299145  0.598291  0.000000      0.000000
 -0.290598  0.581197  0.000000      0.000000
 -0.282051  0.564103  0.000000      0.000000
 -0.273504  0.547009  0.000000      0.000000
 -0.264957  0.529915  0.000000      0.000000
 -0.256410  0.512821  0.000000      0.000000
 -0.247863  0.495726  0.000000      0.000000
 -0.239316  0.478632  0.000000      0.000000
 -0.230769  0.461538  0.000000      0.000000
 -0.222222  0.444444  0.000000      0.000000
 -0.213675  0.427350  0.000000      0.000000
 -0.205128  0.410256  0.000000      0.000000
 -0.196581  0.393162  0.000000      0.000000
 -0.188034  0.376068  0.000000      0.000000
 -0.179487  0.358974  0.000000      0.000000
 -0.170940  0.341880  0.000000      0.000000
 -0.162393  0.324786  0.000000      0.000000
 -0.153846  0.307692  0.000000      0.000000
 -0.145299  0.290598  0.000000      0.000000
 -0.136752  0.273504  0.000000      0.000000
 -0.128205  0.256410  0.000000      0.000000
 -0.119658  0.239316  0.000000      0.000000
 -0.111111  0.222222  0.000000      0.000000
 -0.102564  0.205128  0.000000      0.000000
 -0.094017  0.188034  0.000000      0.000000
 -0.085470  0.170940  0.000000      0.000000
 -0.076923  0.153846  0.000000      0.000000
 -0.068376  0.136752  0.000000      0.000000
 -0.059829  0.119658  0.000000      0.000000
 -0.051282  0.102564  0.000000      0.000000
 -0.042735  0.085470  0.000000      0.000000
 -0.034188  0.068376  0.000000      0.000000
 -0.025641  0.051282  0.000000      0.000000
 -0.017094  0.034188  0.000000      0.000000
 -0.008547  0.017094  0.000000      0.000000
  0.000000  0.000000  0.000000      0.000000

 Following cartesian coordinates:
            Coordinates               Weight
  0.000000  0.000000  0.000000      0.012346
  0.033467  0.019322  0.000000      0.012346
 -0.033467 -0.019322  0.000000      0.012346
  0.000000  0.038645  0.000000      0.012346
  0.000000 -0.038645  0.000000      0.012346
 -0.033467  0.019322  0.000000      0.012346
  0.033467 -0.019322  0.000000      0.012346
  0.066934  0.038645  0.000000      0.012346
 -0.066934 -0.038645  0.000000      0.012346
  0.000000  0.077289  0.000000      0.012346
  0.000000 -0.077289  0.000000      0.012346
 -0.066934  0.038645  0.000000      0.012346
  0.066934 -0.038645  0.000000      0.012346
  0.100402  0.057967  0.000000      0.012346
 -0.100402 -0.057967  0.000000      0.012346
  0.000000  0.115934  0.000000      0.012346
  0.000000 -0.115934  0.000000      0.012346
 -0.100402  0.057967  0.000000      0.012346
  0.100402 -0.057967  0.000000      0.012346
  0.133869  0.077289  0.000000      0.012346
 -0.133869 -0.077289  0.000000      0.012346
  0.000000  0.154578  0.000000      0.012346
  0.000000 -0.154578  0.000000      0.012346
 -0.133869  0.077289  0.000000      0.012346
  0.133869 -0.077289  0.000000      0.012346
  0.033467  0.057967  0.000000      0.012346
 -0.033467 -0.057967  0.000000      0.012346
 -0.033467  0.057967  0.000000      0.012346
  0.033467 -0.057967  0.000000      0.012346
 -0.066934 -0.000000  0.000000      0.012346
  0.066934  0.000000  0.000000      0.012346
  0.066934  0.077289  0.000000      0.012346
 -0.066934 -0.077289  0.000000      0.012346
 -0.033467  0.096611  0.000000      0.012346
  0.033467 -0.096611  0.000000      0.012346
 -0.100402  0.019322  0.000000      0.012346
  0.100402 -0.019322  0.000000      0.012346
 -0.066934  0.077289  0.000000      0.012346
  0.066934 -0.077289  0.000000      0.012346
  0.033467  0.096611  0.000000      0.012346
 -0.033467 -0.096611  0.000000      0.012346
  0.100402  0.019322  0.000000      0.012346
 -0.100402 -0.019322  0.000000      0.012346
  0.100402  0.096611  0.000000      0.012346
 -0.100402 -0.096611  0.000000      0.012346
 -0.033467  0.135256  0.000000      0.012346
  0.033467 -0.135256  0.000000      0.012346
 -0.133869  0.038645  0.000000      0.012346
  0.133869 -0.038645  0.000000      0.012346
 -0.100402  0.096611  0.000000      0.012346
  0.100402 -0.096611  0.000000      0.012346
  0.033467  0.135256  0.000000      0.012346
 -0.033467 -0.135256  0.000000      0.012346
  0.133869  0.038645  0.000000      0.012346
 -0.133869 -0.038645  0.000000      0.012346
  0.133869  0.115934  0.000000      0.012346
 -0.133869 -0.115934  0.000000      0.012346
 -0.033467 -0.173901  0.000000      0.012346
  0.033467  0.173901  0.000000      0.012346
  0.133869  0.231868  0.000000      0.012346
 -0.133869 -0.231868  0.000000      0.012346
  0.066934  0.115934  0.000000      0.012346
 -0.066934 -0.115934  0.000000      0.012346
 -0.066934  0.115934  0.000000      0.012346
  0.066934 -0.115934  0.000000      0.012346
 -0.133869 -0.000000  0.000000      0.012346
  0.133869  0.000000  0.000000      0.012346
  0.100402  0.135256  0.000000      0.012346
 -0.100402 -0.135256  0.000000      0.012346
 -0.066934 -0.193223  0.000000      0.012346
  0.066934  0.193223  0.000000      0.012346
  0.133869  0.193223  0.000000      0.012346
 -0.133869 -0.193223  0.000000      0.012346
 -0.100402 -0.212545  0.000000      0.012346
  0.100402  0.212545  0.000000      0.012346
  0.066934  0.154578  0.000000      0.012346
 -0.066934 -0.154578  0.000000      0.012346
 -0.133869 -0.154578  0.000000      0.012346
  0.133869  0.154578  0.000000      0.012346
  0.100402  0.173901  0.000000      0.012346
 -0.100402 -0.173901  0.000000      0.012346
  0.000000  0.000000  0.000000      0.000000
  0.002574  0.004459  0.000000      0.000000
  0.005149  0.008918  0.000000      0.000000
  0.007723  0.013377  0.000000      0.000000
  0.010298  0.017836  0.000000      0.000000
  0.012872  0.022295  0.000000      0.000000
  0.015446  0.026754  0.000000      0.000000
  0.018021  0.031213  0.000000      0.000000
  0.020595  0.035672  0.000000      0.000000
  0.023170  0.040131  0.000000      0.000000
  0.025744  0.044590  0.000000      0.000000
  0.028318  0.049049  0.000000      0.000000
  0.030893  0.053508  0.000000      0.000000
  0.033467  0.057967  0.000000      0.000000
  0.036042  0.062426  0.000000      0.000000
  0.038616  0.066885  0.000000      0.000000
  0.041190  0.071344  0.000000      0.000000
  0.043765  0.075803  0.000000      0.000000
  0.046339  0.080262  0.000000      0.000000
  0.048914  0.084721  0.000000      0.000000
  0.051488  0.089180  0.000000      0.000000
  0.054062  0.093639  0.000000      0.000000
  0.056637  0.098098  0.000000      0.000000
  0.059211  0.102557  0.000000      0.000000
  0.061786  0.107016  0.000000      0.000000
  0.064360  0.111475  0.000000      0.000000
  0.066934  0.115934  0.000000      0.000000
  0.069509  0.120393  0.000000      0.000000
  0.072083  0.124852  0.000000      0.000000
  0.074658  0.129311  0.000000      0.000000
  0.077232  0.133770  0.000000      0.000000
  0.079806  0.138229  0.000000      0.000000
  0.082381  0.142688  0.000000      0.000000
  0.084955  0.147147  0.000000      0.000000
  0.087530  0.151606  0.000000      0.000000
  0.090104  0.156065  0.000000      0.000000
  0.092678  0.160524  0.000000      0.000000
  0.095253  0.164983  0.000000      0.000000
  0.097827  0.169442  0.000000      0.000000
  0.100402  0.173901  0.000000      0.000000
  0.100402  0.173901  0.000000      0.000000
  0.095253  0.173901  0.000000      0.000000
  0.090104  0.173901  0.000000      0.000000
  0.084955  0.173901  0.000000      0.000000
  0.079806  0.173901  0.000000      0.000000
  0.074658  0.173901  0.000000      0.000000
  0.069509  0.173901  0.000000      0.000000
  0.064360  0.173901  0.000000      0.000000
  0.059211  0.173901  0.000000      0.000000
  0.054062  0.173901  0.000000      0.000000
  0.048914  0.173901  0.000000      0.000000
  0.043765  0.173901  0.000000      0.000000
  0.038616  0.173901  0.000000      0.000000
  0.033467  0.173901  0.000000      0.000000
  0.028318  0.173901  0.000000      0.000000
  0.023170  0.173901  0.000000      0.000000
  0.018021  0.173901  0.000000      0.000000
  0.012872  0.173901  0.000000      0.000000
  0.007723  0.173901  0.000000      0.000000
  0.002574  0.173901  0.000000      0.000000
 -0.002574  0.173901  0.000000      0.000000
 -0.007723  0.173901  0.000000      0.000000
 -0.012872  0.173901  0.000000      0.000000
 -0.018021  0.173901  0.000000      0.000000
 -0.023170  0.173901  0.000000      0.000000
 -0.028318  0.173901  0.000000      0.000000
 -0.033467  0.173901  0.000000      0.000000
 -0.038616  0.173901  0.000000      0.000000
 -0.043765  0.173901  0.000000      0.000000
 -0.048914  0.173901  0.000000      0.000000
 -0.054062  0.173901  0.000000      0.000000
 -0.059211  0.173901  0.000000      0.000000
 -0.064360  0.173901  0.000000      0.000000
 -0.069509  0.173901  0.000000      0.000000
 -0.074658  0.173901  0.000000      0.000000
 -0.079806  0.173901  0.000000      0.000000
 -0.084955  0.173901  0.000000      0.000000
 -0.090104  0.173901  0.000000      0.000000
 -0.095253  0.173901  0.000000      0.000000
 -0.100402  0.173901  0.000000      0.000000
 -0.100402  0.173901  0.000000      0.000000
 -0.097827  0.169442  0.000000      0.000000
 -0.095253  0.164983  0.000000      0.000000
 -0.092678  0.160524  0.000000      0.000000
 -0.090104  0.156065  0.000000      0.000000
 -0.087530  0.151606  0.000000      0.000000
 -0.084955  0.147147  0.000000      0.000000
 -0.082381  0.142688  0.000000      0.000000
 -0.079806  0.138229  0.000000      0.000000
 -0.077232  0.133770  0.000000      0.000000
 -0.074658  0.129311  0.000000      0.000000
 -0.072083  0.124852  0.000000      0.000000
 -0.069509  0.120393  0.000000      0.000000
 -0.066934  0.115934  0.000000      0.000000
 -0.064360  0.111475  0.000000      0.000000
 -0.061786  0.107016  0.000000      0.000000
 -0.059211  0.102557  0.000000      0.000000
 -0.056637  0.098098  0.000000      0.000000
 -0.054062  0.093639  0.000000      0.000000
 -0.051488  0.089180  0.000000      0.000000
 -0.048914  0.084721  0.000000      0.000000
 -0.046339  0.080262  0.000000      0.000000
 -0.043765  0.075803  0.000000      0.000000
 -0.041190  0.071344  0.000000      0.000000
 -0.038616  0.066885  0.000000      0.000000
 -0.036042  0.062426  0.000000      0.000000
 -0.033467  0.057967  0.000000      0.000000
 -0.030893  0.053508  0.000000      0.000000
 -0.028318  0.049049  0.000000      0.000000
 -0.025744  0.044590  0.000000      0.000000
 -0.023170  0.040131  0.000000      0.000000
 -0.020595  0.035672  0.000000      0.000000
 -0.018021  0.031213  0.000000      0.000000
 -0.015446  0.026754  0.000000      0.000000
 -0.012872  0.022295  0.000000      0.000000
 -0.010298  0.017836  0.000000      0.000000
 -0.007723  0.013377  0.000000      0.000000
 -0.005149  0.008918  0.000000      0.000000
 -0.002574  0.004459  0.000000      0.000000
  0.000000  0.000000  0.000000      0.000000
 
 
 Subroutine IBZKPT_HF returns following result:
 ==============================================
 
 Found    201 k-points in 1st BZ
 the following    201 k-points will be used (e.g. in the exchange kernel)
 Following reciprocal coordinates:   # in IRBZ
  0.000000  0.000000  0.000000    0.01234568   1 t-inv F
  0.111111  0.000000  0.000000    0.01234568   2 t-inv F
 -0.111111  0.000000  0.000000    0.01234568   3 t-inv F
  0.000000  0.111111  0.000000    0.01234568   4 t-inv F
  0.000000 -0.111111  0.000000    0.01234568   5 t-inv F
 -0.111111  0.111111  0.000000    0.01234568   6 t-inv F
  0.111111 -0.111111  0.000000    0.01234568   7 t-inv F
  0.222222  0.000000  0.000000    0.01234568   8 t-inv F
 -0.222222  0.000000  0.000000    0.01234568   9 t-inv F
  0.000000  0.222222  0.000000    0.01234568  10 t-inv F
  0.000000 -0.222222  0.000000    0.01234568  11 t-inv F
 -0.222222  0.222222  0.000000    0.01234568  12 t-inv F
  0.222222 -0.222222  0.000000    0.01234568  13 t-inv F
  0.333333  0.000000  0.000000    0.01234568  14 t-inv F
 -0.333333  0.000000  0.000000    0.01234568  15 t-inv F
  0.000000  0.333333  0.000000    0.01234568  16 t-inv F
  0.000000 -0.333333  0.000000    0.01234568  17 t-inv F
 -0.333333  0.333333  0.000000    0.01234568  18 t-inv F
  0.333333 -0.333333  0.000000    0.01234568  19 t-inv F
  0.444444  0.000000  0.000000    0.01234568  20 t-inv F
 -0.444444  0.000000  0.000000    0.01234568  21 t-inv F
  0.000000  0.444444  0.000000    0.01234568  22 t-inv F
  0.000000 -0.444444  0.000000    0.01234568  23 t-inv F
 -0.444444  0.444444  0.000000    0.01234568  24 t-inv F
  0.444444 -0.444444  0.000000    0.01234568  25 t-inv F
  0.111111  0.111111  0.000000    0.01234568  26 t-inv F
 -0.111111 -0.111111  0.000000    0.01234568  27 t-inv F
 -0.111111  0.222222  0.000000    0.01234568  28 t-inv F
  0.111111 -0.222222  0.000000    0.01234568  29 t-inv F
 -0.222222  0.111111  0.000000    0.01234568  30 t-inv F
  0.222222 -0.111111  0.000000    0.01234568  31 t-inv F
  0.222222  0.111111  0.000000    0.01234568  32 t-inv F
 -0.222222 -0.111111  0.000000    0.01234568  33 t-inv F
 -0.111111  0.333333  0.000000    0.01234568  34 t-inv F
  0.111111 -0.333333  0.000000    0.01234568  35 t-inv F
 -0.333333  0.222222  0.000000    0.01234568  36 t-inv F
  0.333333 -0.222222  0.000000    0.01234568  37 t-inv F
 -0.222222  0.333333  0.000000    0.01234568  38 t-inv F
  0.222222 -0.333333  0.000000    0.01234568  39 t-inv F
  0.111111  0.222222  0.000000    0.01234568  40 t-inv F
 -0.111111 -0.222222  0.000000    0.01234568  41 t-inv F
  0.333333 -0.111111  0.000000    0.01234568  42 t-inv F
 -0.333333  0.111111  0.000000    0.01234568  43 t-inv F
  0.333333  0.111111  0.000000    0.01234568  44 t-inv F
 -0.333333 -0.111111  0.000000    0.01234568  45 t-inv F
 -0.111111  0.444444  0.000000    0.01234568  46 t-inv F
  0.111111 -0.444444  0.000000    0.01234568  47 t-inv F
 -0.444444  0.333333  0.000000    0.01234568  48 t-inv F
  0.444444 -0.333333  0.000000    0.01234568  49 t-inv F
 -0.333333  0.444444  0.000000    0.01234568  50 t-inv F
  0.333333 -0.444444  0.000000    0.01234568  51 t-inv F
  0.111111  0.333333  0.000000    0.01234568  52 t-inv F
 -0.111111 -0.333333  0.000000    0.01234568  53 t-inv F
  0.444444 -0.111111  0.000000    0.01234568  54 t-inv F
 -0.444444  0.111111  0.000000    0.01234568  55 t-inv F
  0.444444  0.111111  0.000000    0.01234568  56 t-inv F
 -0.444444 -0.111111  0.000000    0.01234568  57 t-inv F
 -0.111111 -0.444444  0.000000    0.01234568  58 t-inv F
  0.111111  0.444444  0.000000    0.01234568  59 t-inv F
  0.444444  0.444444  0.000000    0.01234568  60 t-inv F
 -0.444444 -0.444444  0.000000    0.01234568  61 t-inv F
  0.222222  0.222222  0.000000    0.01234568  62 t-inv F
 -0.222222 -0.222222  0.000000    0.01234568  63 t-inv F
 -0.222222  0.444444  0.000000    0.01234568  64 t-inv F
  0.222222 -0.444444  0.000000    0.01234568  65 t-inv F
 -0.444444  0.222222  0.000000    0.01234568  66 t-inv F
  0.444444 -0.222222  0.000000    0.01234568  67 t-inv F
  0.333333  0.222222  0.000000    0.01234568  68 t-inv F
 -0.333333 -0.222222  0.000000    0.01234568  69 t-inv F
 -0.222222 -0.444444  0.000000    0.01234568  70 t-inv F
  0.222222  0.444444  0.000000    0.01234568  71 t-inv F
  0.444444  0.333333  0.000000    0.01234568  72 t-inv F
 -0.444444 -0.333333  0.000000    0.01234568  73 t-inv F
 -0.333333 -0.444444  0.000000    0.01234568  74 t-inv F
  0.333333  0.444444  0.000000    0.01234568  75 t-inv F
  0.222222  0.333333  0.000000    0.01234568  76 t-inv F
 -0.222222 -0.333333  0.000000    0.01234568  77 t-inv F
 -0.444444 -0.222222  0.000000    0.01234568  78 t-inv F
  0.444444  0.222222  0.000000    0.01234568  79 t-inv F
  0.333333  0.333333  0.000000    0.01234568  80 t-inv F
 -0.333333 -0.333333  0.000000    0.01234568  81 t-inv F
  0.000000  0.000000  0.000000    0.00000000  82 t-inv F
  0.008547  0.008547  0.000000    0.00000000  83 t-inv F
  0.017094  0.017094  0.000000    0.00000000  84 t-inv F
  0.025641  0.025641  0.000000    0.00000000  85 t-inv F
  0.034188  0.034188  0.000000    0.00000000  86 t-inv F
  0.042735  0.042735  0.000000    0.00000000  87 t-inv F
  0.051282  0.051282  0.000000    0.00000000  88 t-inv F
  0.059829  0.059829  0.000000    0.00000000  89 t-inv F
  0.068376  0.068376  0.000000    0.00000000  90 t-inv F
  0.076923  0.076923  0.000000    0.00000000  91 t-inv F
  0.085470  0.085470  0.000000    0.00000000  92 t-inv F
  0.094017  0.094017  0.000000    0.00000000  93 t-inv F
  0.102564  0.102564  0.000000    0.00000000  94 t-inv F
  0.111111  0.111111  0.000000    0.00000000  95 t-inv F
  0.119658  0.119658  0.000000    0.00000000  96 t-inv F
  0.128205  0.128205  0.000000    0.00000000  97 t-inv F
  0.136752  0.136752  0.000000    0.00000000  98 t-inv F
  0.145299  0.145299  0.000000    0.00000000  99 t-inv F
  0.153846  0.153846  0.000000    0.00000000 100 t-inv F
  0.162393  0.162393  0.000000    0.00000000 101 t-inv F
  0.170940  0.170940  0.000000    0.00000000 102 t-inv F
  0.179487  0.179487  0.000000    0.00000000 103 t-inv F
  0.188034  0.188034  0.000000    0.00000000 104 t-inv F
  0.196581  0.196581  0.000000    0.00000000 105 t-inv F
  0.205128  0.205128  0.000000    0.00000000 106 t-inv F
  0.213675  0.213675  0.000000    0.00000000 107 t-inv F
  0.222222  0.222222  0.000000    0.00000000 108 t-inv F
  0.230769  0.230769  0.000000    0.00000000 109 t-inv F
  0.239316  0.239316  0.000000    0.00000000 110 t-inv F
  0.247863  0.247863  0.000000    0.00000000 111 t-inv F
  0.256410  0.256410  0.000000    0.00000000 112 t-inv F
  0.264957  0.264957  0.000000    0.00000000 113 t-inv F
  0.273504  0.273504  0.000000    0.00000000 114 t-inv F
  0.282051  0.282051  0.000000    0.00000000 115 t-inv F
  0.290598  0.290598  0.000000    0.00000000 116 t-inv F
  0.299145  0.299145  0.000000    0.00000000 117 t-inv F
  0.307692  0.307692  0.000000    0.00000000 118 t-inv F
  0.316239  0.316239  0.000000    0.00000000 119 t-inv F
  0.324786  0.324786  0.000000    0.00000000 120 t-inv F
  0.333333  0.333333  0.000000    0.00000000 121 t-inv F
  0.333333  0.333333  0.000000    0.00000000 122 t-inv F
  0.316239  0.341880  0.000000    0.00000000 123 t-inv F
  0.299145  0.350427  0.000000    0.00000000 124 t-inv F
  0.282051  0.358974  0.000000    0.00000000 125 t-inv F
  0.264957  0.367521  0.000000    0.00000000 126 t-inv F
  0.247863  0.376068  0.000000    0.00000000 127 t-inv F
  0.230769  0.384615  0.000000    0.00000000 128 t-inv F
  0.213675  0.393162  0.000000    0.00000000 129 t-inv F
  0.196581  0.401709  0.000000    0.00000000 130 t-inv F
  0.179487  0.410256  0.000000    0.00000000 131 t-inv F
  0.162393  0.418803  0.000000    0.00000000 132 t-inv F
  0.145299  0.427350  0.000000    0.00000000 133 t-inv F
  0.128205  0.435897  0.000000    0.00000000 134 t-inv F
  0.111111  0.444444  0.000000    0.00000000 135 t-inv F
  0.094017  0.452991  0.000000    0.00000000 136 t-inv F
  0.076923  0.461538  0.000000    0.00000000 137 t-inv F
  0.059829  0.470085  0.000000    0.00000000 138 t-inv F
  0.042735  0.478632  0.000000    0.00000000 139 t-inv F
  0.025641  0.487179  0.000000    0.00000000 140 t-inv F
  0.008547  0.495726  0.000000    0.00000000 141 t-inv F
 -0.008547  0.504274  0.000000    0.00000000 142 t-inv F
 -0.025641  0.512821  0.000000    0.00000000 143 t-inv F
 -0.042735  0.521368  0.000000    0.00000000 144 t-inv F
 -0.059829  0.529915  0.000000    0.00000000 145 t-inv F
 -0.076923  0.538462  0.000000    0.00000000 146 t-inv F
 -0.094017  0.547009  0.000000    0.00000000 147 t-inv F
 -0.111111  0.555556  0.000000    0.00000000 148 t-inv F
 -0.128205  0.564103  0.000000    0.00000000 149 t-inv F
 -0.145299  0.572650  0.000000    0.00000000 150 t-inv F
 -0.162393  0.581197  0.000000    0.00000000 151 t-inv F
 -0.179487  0.589744  0.000000    0.00000000 152 t-inv F
 -0.196581  0.598291  0.000000    0.00000000 153 t-inv F
 -0.213675  0.606838  0.000000    0.00000000 154 t-inv F
 -0.230769  0.615385  0.000000    0.00000000 155 t-inv F
 -0.247863  0.623932  0.000000    0.00000000 156 t-inv F
 -0.264957  0.632479  0.000000    0.00000000 157 t-inv F
 -0.282051  0.641026  0.000000    0.00000000 158 t-inv F
 -0.299145  0.649573  0.000000    0.00000000 159 t-inv F
 -0.316239  0.658120  0.000000    0.00000000 160 t-inv F
 -0.333333  0.666667  0.000000    0.00000000 161 t-inv F
 -0.333333  0.666667  0.000000    0.00000000 162 t-inv F
 -0.324786  0.649573  0.000000    0.00000000 163 t-inv F
 -0.316239  0.632479  0.000000    0.00000000 164 t-inv F
 -0.307692  0.615385  0.000000    0.00000000 165 t-inv F
 -0.299145  0.598291  0.000000    0.00000000 166 t-inv F
 -0.290598  0.581197  0.000000    0.00000000 167 t-inv F
 -0.282051  0.564103  0.000000    0.00000000 168 t-inv F
 -0.273504  0.547009  0.000000    0.00000000 169 t-inv F
 -0.264957  0.529915  0.000000    0.00000000 170 t-inv F
 -0.256410  0.512821  0.000000    0.00000000 171 t-inv F
 -0.247863  0.495726  0.000000    0.00000000 172 t-inv F
 -0.239316  0.478632  0.000000    0.00000000 173 t-inv F
 -0.230769  0.461538  0.000000    0.00000000 174 t-inv F
 -0.222222  0.444444  0.000000    0.00000000 175 t-inv F
 -0.213675  0.427350  0.000000    0.00000000 176 t-inv F
 -0.205128  0.410256  0.000000    0.00000000 177 t-inv F
 -0.196581  0.393162  0.000000    0.00000000 178 t-inv F
 -0.188034  0.376068  0.000000    0.00000000 179 t-inv F
 -0.179487  0.358974  0.000000    0.00000000 180 t-inv F
 -0.170940  0.341880  0.000000    0.00000000 181 t-inv F
 -0.162393  0.324786  0.000000    0.00000000 182 t-inv F
 -0.153846  0.307692  0.000000    0.00000000 183 t-inv F
 -0.145299  0.290598  0.000000    0.00000000 184 t-inv F
 -0.136752  0.273504  0.000000    0.00000000 185 t-inv F
 -0.128205  0.256410  0.000000    0.00000000 186 t-inv F
 -0.119658  0.239316  0.000000    0.00000000 187 t-inv F
 -0.111111  0.222222  0.000000    0.00000000 188 t-inv F
 -0.102564  0.205128  0.000000    0.00000000 189 t-inv F
 -0.094017  0.188034  0.000000    0.00000000 190 t-inv F
 -0.085470  0.170940  0.000000    0.00000000 191 t-inv F
 -0.076923  0.153846  0.000000    0.00000000 192 t-inv F
 -0.068376  0.136752  0.000000    0.00000000 193 t-inv F
 -0.059829  0.119658  0.000000    0.00000000 194 t-inv F
 -0.051282  0.102564  0.000000    0.00000000 195 t-inv F
 -0.042735  0.085470  0.000000    0.00000000 196 t-inv F
 -0.034188  0.068376  0.000000    0.00000000 197 t-inv F
 -0.025641  0.051282  0.000000    0.00000000 198 t-inv F
 -0.017094  0.034188  0.000000    0.00000000 199 t-inv F
 -0.008547  0.017094  0.000000    0.00000000 200 t-inv F
  0.000000  0.000000  0.000000    0.00000000 201 t-inv F


--------------------------------------------------------------------------------------------------------




 Dimension of arrays:
   k-points           NKPTS =    201   k-points in BZ     NKDIM =    201   number of bands    NBANDS=     32
   number of dos      NEDOS =    301   number of ions     NIONS =      3
   non local maximal  LDIM  =      6   non local SUM 2l+1 LMDIM =     18
   total plane-waves  NPLWV =  20480
   max r-space proj   IRMAX =      1   max aug-charges    IRDMAX=   9382
   dimension x,y,z NGX =    16 NGY =   16 NGZ =   80
   dimension x,y,z NGXF=    32 NGYF=   32 NGZF=  160
   support grid    NGXF=    32 NGYF=   32 NGZF=  160
   ions per type =               1   2
   NGX,Y,Z   is equivalent  to a cutoff of   8.01,  8.01,  8.87 a.u.
   NGXF,Y,Z  is equivalent  to a cutoff of  16.02, 16.02, 17.73 a.u.

 SYSTEM =  MoSe2                                   
 POSCAR =  Mo  S                                   

 Startparameter for this run:
   NWRITE =      2    write-flag & timer
   PREC   = accura    normal or accurate (medium, high low for compatibility)
   ISTART =      0    job   : 0-new  1-cont  2-samecut
   ICHARG =      1    charge: 1-file 2-atom 10-const
   ISPIN  =      1    spin polarized calculation?
   LNONCOLLINEAR =      T non collinear calculations
   LSORBIT =      T    spin-orbit coupling
   INIWAV =      1    electr: 0-lowe 1-rand  2-diag
   LASPH  =      F    aspherical Exc in radial PAW
 Electronic Relaxation 1
   ENCUT  =  224.6 eV  16.51 Ry    4.06 a.u.   4.06  4.06 18.33*2*pi/ulx,y,z
   ENINI  =  224.6     initial cutoff
   ENAUG  =  446.8 eV  augmentation charge cutoff
   NELM   =    200;   NELMIN=  4; NELMDL= -5     # of ELM steps 
   EDIFF  = 0.1E-05   stopping-criterion for ELM
   LREAL  =      F    real-space projection
   NLSPLINE    = F    spline interpolate recip. space projectors
   LCOMPAT=      F    compatible to vasp.4.4
   GGA_COMPAT  = T    GGA compatible to vasp.4.4-vasp.4.6
   LMAXPAW     = -100 max onsite density
   LMAXMIX     =    2 max onsite mixed and CHGCAR
   VOSKOWN=      0    Vosko Wilk Nusair interpolation
   ROPT   =    0.00000   0.00000
 Ionic relaxation
   EDIFFG = 0.1E-04   stopping-criterion for IOM
   NSW    =      0    number of steps for IOM
   NBLOCK =      1;   KBLOCK =      1    inner block; outer block 
   IBRION =     -1    ionic relax: 0-MD 1-quasi-New 2-CG
   NFREE  =      0    steps in history (QN), initial steepest desc. (CG)
   ISIF   =      0    stress and relaxation
   IWAVPR =     10    prediction:  0-non 1-charg 2-wave 3-comb
   ISYM   =      3    0-nonsym 1-usesym 2-fastsym
   LCORR  =      T    Harris-Foulkes like correction to forces

   POTIM  = 0.5000    time-step for ionic-motion
   TEIN   =    0.0    initial temperature
   TEBEG  =    0.0;   TEEND  =   0.0 temperature during run
   SMASS  =  -3.00    Nose mass-parameter (am)
   estimated Nose-frequenzy (Omega)   =  0.10E-29 period in steps = 0.13E+47 mass=  -0.252E-27a.u.
   SCALEE = 1.0000    scale energy and forces
   NPACO  =    256;   APACO  = 10.0  distance and # of slots for P.C.
   PSTRESS=    0.0 pullay stress

  Mass of Ions in am
   POMASS =  95.94 78.96
  Ionic Valenz
   ZVAL   =   6.00  6.00
  Atomic Wigner-Seitz radii
   RWIGS  =  -1.00 -1.00
  virtual crystal weights 
   VCA    =   1.00  1.00
   NELECT =      18.0000    total number of electrons
   NUPDOWN=      -1.0000    fix difference up-down

 DOS related values:
   EMIN   =  10.00;   EMAX   =-10.00  energy-range for DOS
   EFERMI =   0.00
   ISMEAR =     0;   SIGMA  =   0.10  broadening in eV -4-tet -1-fermi 0-gaus

 Electronic relaxation 2 (details)
   IALGO  =     53    algorithm
   LDIAG  =      T    sub-space diagonalisation (order eigenvalues)
   LSUBROT=      F    optimize rotation matrix (better conditioning)
   TURBO    =      0    0=normal 1=particle mesh
   IRESTART =      0    0=no restart 2=restart with 2 vectors
   NREBOOT  =      0    no. of reboots
   NMIN     =      0    reboot dimension
   EREF     =   0.00    reference energy to select bands
   IMIX   =      4    mixing-type and parameters
     AMIX     =   0.40;   BMIX     =  1.00
     AMIX_MAG =   1.60;   BMIX_MAG =  1.00
     AMIN     =   0.10
     WC   =   100.;   INIMIX=   1;  MIXPRE=   1;  MAXMIX= -45

 Intra band minimization:
   WEIMIN = 0.0000     energy-eigenvalue tresh-hold
   EBREAK =  0.78E-08  absolut break condition
   DEPER  =   0.30     relativ break condition  

   TIME   =   0.40     timestep for ELM

  volume/ion in A,a.u.               =      47.73       322.09
  Fermi-wavevector in a.u.,A,eV,Ry     =   0.820099  1.549763  9.150768  0.672562
  Thomas-Fermi vector in A             =   1.931021
 
 Write flags
   LWAVE        =      T    write WAVECAR
   LDOWNSAMPLE  =      F    k-point downsampling of WAVECAR
   LCHARG       =      F    write CHGCAR
   LVTOT        =      F    write LOCPOT, total local potential
   LVHAR        =      F    write LOCPOT, Hartree potential only
   LELF         =      F    write electronic localiz. function (ELF)
   LORBIT       =     11    0 simple, 1 ext, 2 COOP (PROOUT), +10 PAW based schemes


 Dipole corrections
   LMONO  =      F    monopole corrections only (constant potential shift)
   LDIPOL =      F    correct potential (dipole corrections)
   IDIPOL =      0    1-x, 2-y, 3-z, 4-all directions 
   EPSILON=  1.0000000 bulk dielectric constant

 Exchange correlation treatment:
   GGA     =    --    GGA type
   LEXCH   =     8    internal setting for exchange type
   LIBXC   =     F    Libxc                    
   VOSKOWN =     0    Vosko Wilk Nusair interpolation
   EXXOEP  =     0    0=HF, 1=EXX-LHF (local Hartree Fock) 2=EXX OEP
   LHFCALC =     T    Hartree Fock is set to
   LSYMGRAD=     F    symmetrize gradient (conserves proper symmetry)
   PRECFOCK=normal    Normal, Fast or Accurate (Low or Medium for compatibility)
   LRHFCALC=     F    long range Hartree Fock
   LRSCOR  =     F    long range correlation only (use DFT for short range part)
   LTHOMAS =     F    Thomas Fermi screening in HF
   LMODELHF=     F    short range full HF, long range fraction AEXX
   LFOCKACE=     T    use Adeptively-Compressed-Exchange operator
   ENCUT4O =  -1.0   cutoff for four orbital integrals eV
   LMAXFOCK=     4    L truncation for augmentation on plane wave grid
   LMAXFOCKAE=  -1    L truncation for all-electron charge restoration on plane wave grid
   NMAXFOCKAE=   1    number of basis functions for all-electron charge restoration
   LFOCKAEDFT=     F  apply the AE augmentation even for DFT
   NKREDX  =     1    reduce k-point grid by
   NKREDY  =     1    reduce k-point grid by
   NKREDZ  =     1    reduce k-point grid by
   SHIFTRED=     F    shift reduced grid of Gamma
   HFKIDENT=     F    idential grid for each k-point
   ODDONLY =     F    use only odd q-grid points
   EVENONLY=     F    use only even q-grid points
   HFALPHA =   -1.0000 decay constant for conv. correction
   MCALPHA =    0.0000 extent of test-charge in conv. correction in multipole expansion
   AEXX    =    0.2500 exact exchange contribution
   HFSCREEN=    0.2000 screening length (either q_TF or 0.3 A-1)
   HFSCREENC=   0.2000 screening length for correlation (either q_TF or 0.3 A-1)
   HFRCUT  =    0.0000 spherical cutoff for potential kernel
   ALDAX   =    0.7500 LDA exchange part
   AGGAX   =    0.7500 GGA exchange part
   ALDAC   =    1.0000 LDA correlation
   AGGAC   =    1.0000 GGA correlation
   ENCUTFOCK=  -1.0 apply spherical cutoff to Coloumb kernel
   NBANDSGWLOW=     1    first orbital included in HF term
   NBLOCK_FOCK=    64    blocking factor in FOCK_ACC

 Linear response parameters
   LEPSILON=     F    determine dielectric tensor
   LRPA    =     F    only Hartree local field effects (RPA)
   LNABLA  =     F    use nabla operator in PAW spheres
   LVEL    =     F    velocity operator in full k-point grid
   CSHIFT  =0.1000    complex shift for real part using Kramers Kronig
   OMEGAMAX=  -1.0    maximum frequency
   DEG_THRESHOLD= 0.2000000E-02 threshold for treating states as degnerate
   RTIME   =   -0.100 relaxation time in fs
  (WPLASMAI=    0.000 imaginary part of plasma frequency in eV, 0.658/RTIME)
   DFIELD  = 0.0000000 0.0000000 0.0000000 field for delta impulse in time
 
  Optional k-point grid parameters
   LKPOINTS_OPT  =     F    use optional k-point grid
   KPOINTS_OPT_MODE=     1    mode for optional k-point grid
 
 Orbital magnetization related:
   ORBITALMAG=     F  switch on orbital magnetization
   LCHIMAG   =     F  perturbation theory with respect to B field
   DQ        =  0.001000  dq finite difference perturbation B field
   LLRAUG    =     F  two centre corrections for induced B field



--------------------------------------------------------------------------------------------------------


 Static calculation
 charge density and potential will be updated during run
 non collinear spin polarized calculation
 Conjugate gradient for all bands (Freysoldt, et al. PRB 79, 241103 (2009))
 perform sub-space diagonalisation
    before iterative eigenvector-optimisation
 modified Broyden-mixing scheme, WC =      100.0
 initial mixing is a Kerker type mixing with AMIX =  0.4000 and BMIX =      1.0000
 Hartree-type preconditioning will be used
 using additional bands           23
 reciprocal scheme for non local part
 use partial core corrections
 no Harris-corrections to forces 
 use gradient corrections 
 use of overlap-Matrix (Vanderbilt PP)
 Gauss-broadening in eV      SIGMA  =   0.10


--------------------------------------------------------------------------------------------------------


  energy-cutoff  :      224.58
  volume of cell :      143.19
      direct lattice vectors                 reciprocal lattice vectors
     3.320000000  0.000000000  0.000000000     0.301204819  0.173900683  0.000000000
    -1.660000000  2.875204341  0.000000000     0.000000000  0.347801367  0.000000000
     0.000000000  0.000000000 15.000000000     0.000000000  0.000000000  0.066666667

  length of vectors
     3.320000000  3.320000000 15.000000000     0.347801367  0.347801367  0.066666667


 
 k-points in units of 2pi/SCALE and weight: Automatically generated mesh            
   0.00000000  0.00000000  0.00000000       0.012
   0.03346720  0.01932230  0.00000000       0.012
  -0.03346720 -0.01932230  0.00000000       0.012
   0.00000000  0.03864460  0.00000000       0.012
   0.00000000 -0.03864460  0.00000000       0.012
  -0.03346720  0.01932230  0.00000000       0.012
   0.03346720 -0.01932230  0.00000000       0.012
   0.06693440  0.03864460  0.00000000       0.012
  -0.06693440 -0.03864460  0.00000000       0.012
   0.00000000  0.07728919  0.00000000       0.012
   0.00000000 -0.07728919  0.00000000       0.012
  -0.06693440  0.03864460  0.00000000       0.012
   0.06693440 -0.03864460  0.00000000       0.012
   0.10040161  0.05796689  0.00000000       0.012
  -0.10040161 -0.05796689  0.00000000       0.012
   0.00000000  0.11593379  0.00000000       0.012
   0.00000000 -0.11593379  0.00000000       0.012
  -0.10040161  0.05796689  0.00000000       0.012
   0.10040161 -0.05796689  0.00000000       0.012
   0.13386881  0.07728919  0.00000000       0.012
  -0.13386881 -0.07728919  0.00000000       0.012
   0.00000000  0.15457839  0.00000000       0.012
   0.00000000 -0.15457839  0.00000000       0.012
  -0.13386881  0.07728919  0.00000000       0.012
   0.13386881 -0.07728919  0.00000000       0.012
   0.03346720  0.05796689  0.00000000       0.012
  -0.03346720 -0.05796689  0.00000000       0.012
  -0.03346720  0.05796689  0.00000000       0.012
   0.03346720 -0.05796689  0.00000000       0.012
  -0.06693440 -0.00000000  0.00000000       0.012
   0.06693440  0.00000000  0.00000000       0.012
   0.06693440  0.07728919  0.00000000       0.012
  -0.06693440 -0.07728919  0.00000000       0.012
  -0.03346720  0.09661149  0.00000000       0.012
   0.03346720 -0.09661149  0.00000000       0.012
  -0.10040161  0.01932230  0.00000000       0.012
   0.10040161 -0.01932230  0.00000000       0.012
  -0.06693440  0.07728919  0.00000000       0.012
   0.06693440 -0.07728919  0.00000000       0.012
   0.03346720  0.09661149  0.00000000       0.012
  -0.03346720 -0.09661149  0.00000000       0.012
   0.10040161  0.01932230  0.00000000       0.012
  -0.10040161 -0.01932230  0.00000000       0.012
   0.10040161  0.09661149  0.00000000       0.012
  -0.10040161 -0.09661149  0.00000000       0.012
  -0.03346720  0.13525609  0.00000000       0.012
   0.03346720 -0.13525609  0.00000000       0.012
  -0.13386881  0.03864460  0.00000000       0.012
   0.13386881 -0.03864460  0.00000000       0.012
  -0.10040161  0.09661149  0.00000000       0.012
   0.10040161 -0.09661149  0.00000000       0.012
   0.03346720  0.13525609  0.00000000       0.012
  -0.03346720 -0.13525609  0.00000000       0.012
   0.13386881  0.03864460  0.00000000       0.012
  -0.13386881 -0.03864460  0.00000000       0.012
   0.13386881  0.11593379  0.00000000       0.012
  -0.13386881 -0.11593379  0.00000000       0.012
  -0.03346720 -0.17390068  0.00000000       0.012
   0.03346720  0.17390068  0.00000000       0.012
   0.13386881  0.23186758  0.00000000       0.012
  -0.13386881 -0.23186758  0.00000000       0.012
   0.06693440  0.11593379  0.00000000       0.012
  -0.06693440 -0.11593379  0.00000000       0.012
  -0.06693440  0.11593379  0.00000000       0.012
   0.06693440 -0.11593379  0.00000000       0.012
  -0.13386881  0.00000000  0.00000000       0.012
   0.13386881 -0.00000000  0.00000000       0.012
   0.10040161  0.13525609  0.00000000       0.012
  -0.10040161 -0.13525609  0.00000000       0.012
  -0.06693440 -0.19322298  0.00000000       0.012
   0.06693440  0.19322298  0.00000000       0.012
   0.13386881  0.19322298  0.00000000       0.012
  -0.13386881 -0.19322298  0.00000000       0.012
  -0.10040161 -0.21254528  0.00000000       0.012
   0.10040161  0.21254528  0.00000000       0.012
   0.06693440  0.15457839  0.00000000       0.012
  -0.06693440 -0.15457839  0.00000000       0.012
  -0.13386881 -0.15457839  0.00000000       0.012
   0.13386881  0.15457839  0.00000000       0.012
   0.10040161  0.17390068  0.00000000       0.012
  -0.10040161 -0.17390068  0.00000000       0.012
   0.00000000  0.00000000  0.00000000       0.000
   0.00257440  0.00445899  0.00000000       0.000
   0.00514880  0.00891797  0.00000000       0.000
   0.00772319  0.01337696  0.00000000       0.000
   0.01029759  0.01783595  0.00000000       0.000
   0.01287199  0.02229494  0.00000000       0.000
   0.01544639  0.02675392  0.00000000       0.000
   0.01802078  0.03121291  0.00000000       0.000
   0.02059518  0.03567190  0.00000000       0.000
   0.02316958  0.04013089  0.00000000       0.000
   0.02574398  0.04458987  0.00000000       0.000
   0.02831837  0.04904886  0.00000000       0.000
   0.03089277  0.05350785  0.00000000       0.000
   0.03346717  0.05796684  0.00000000       0.000
   0.03604157  0.06242582  0.00000000       0.000
   0.03861596  0.06688481  0.00000000       0.000
   0.04119036  0.07134380  0.00000000       0.000
   0.04376476  0.07580279  0.00000000       0.000
   0.04633916  0.08026177  0.00000000       0.000
   0.04891355  0.08472076  0.00000000       0.000
   0.05148795  0.08917975  0.00000000       0.000
   0.05406235  0.09363874  0.00000000       0.000
   0.05663675  0.09809772  0.00000000       0.000
   0.05921114  0.10255671  0.00000000       0.000
   0.06178554  0.10701570  0.00000000       0.000
   0.06435994  0.11147469  0.00000000       0.000
   0.06693434  0.11593367  0.00000000       0.000
   0.06950873  0.12039266  0.00000000       0.000
   0.07208313  0.12485165  0.00000000       0.000
   0.07465753  0.12931064  0.00000000       0.000
   0.07723193  0.13376962  0.00000000       0.000
   0.07980633  0.13822861  0.00000000       0.000
   0.08238072  0.14268760  0.00000000       0.000
   0.08495512  0.14714659  0.00000000       0.000
   0.08752952  0.15160557  0.00000000       0.000
   0.09010392  0.15606456  0.00000000       0.000
   0.09267831  0.16052355  0.00000000       0.000
   0.09525271  0.16498253  0.00000000       0.000
   0.09782711  0.16944152  0.00000000       0.000
   0.10040151  0.17390051  0.00000000       0.000
   0.10040151  0.17390051  0.00000000       0.000
   0.09525271  0.17390051  0.00000000       0.000
   0.09010392  0.17390051  0.00000000       0.000
   0.08495512  0.17390051  0.00000000       0.000
   0.07980633  0.17390051  0.00000000       0.000
   0.07465753  0.17390051  0.00000000       0.000
   0.06950873  0.17390051  0.00000000       0.000
   0.06435994  0.17390051  0.00000000       0.000
   0.05921114  0.17390051  0.00000000       0.000
   0.05406235  0.17390051  0.00000000       0.000
   0.04891355  0.17390051  0.00000000       0.000
   0.04376476  0.17390051  0.00000000       0.000
   0.03861596  0.17390051  0.00000000       0.000
   0.03346717  0.17390051  0.00000000       0.000
   0.02831837  0.17390051  0.00000000       0.000
   0.02316958  0.17390051  0.00000000       0.000
   0.01802078  0.17390051  0.00000000       0.000
   0.01287199  0.17390051  0.00000000       0.000
   0.00772319  0.17390051  0.00000000       0.000
   0.00257440  0.17390051  0.00000000       0.000
  -0.00257440  0.17390086  0.00000000       0.000
  -0.00772319  0.17390086  0.00000000       0.000
  -0.01287199  0.17390086  0.00000000       0.000
  -0.01802078  0.17390086  0.00000000       0.000
  -0.02316958  0.17390086  0.00000000       0.000
  -0.02831837  0.17390086  0.00000000       0.000
  -0.03346717  0.17390086  0.00000000       0.000
  -0.03861596  0.17390086  0.00000000       0.000
  -0.04376476  0.17390086  0.00000000       0.000
  -0.04891355  0.17390086  0.00000000       0.000
  -0.05406235  0.17390086  0.00000000       0.000
  -0.05921114  0.17390086  0.00000000       0.000
  -0.06435994  0.17390086  0.00000000       0.000
  -0.06950873  0.17390086  0.00000000       0.000
  -0.07465753  0.17390086  0.00000000       0.000
  -0.07980633  0.17390086  0.00000000       0.000
  -0.08495512  0.17390086  0.00000000       0.000
  -0.09010392  0.17390086  0.00000000       0.000
  -0.09525271  0.17390086  0.00000000       0.000
  -0.10040151  0.17390086  0.00000000       0.000
  -0.10040151  0.17390086  0.00000000       0.000
  -0.09782711  0.16944187  0.00000000       0.000
  -0.09525271  0.16498288  0.00000000       0.000
  -0.09267831  0.16052390  0.00000000       0.000
  -0.09010392  0.15606491  0.00000000       0.000
  -0.08752952  0.15160592  0.00000000       0.000
  -0.08495512  0.14714693  0.00000000       0.000
  -0.08238072  0.14268795  0.00000000       0.000
  -0.07980633  0.13822896  0.00000000       0.000
  -0.07723193  0.13376997  0.00000000       0.000
  -0.07465753  0.12931064  0.00000000       0.000
  -0.07208313  0.12485165  0.00000000       0.000
  -0.06950873  0.12039266  0.00000000       0.000
  -0.06693434  0.11593367  0.00000000       0.000
  -0.06435994  0.11147469  0.00000000       0.000
  -0.06178554  0.10701570  0.00000000       0.000
  -0.05921114  0.10255671  0.00000000       0.000
  -0.05663675  0.09809772  0.00000000       0.000
  -0.05406235  0.09363874  0.00000000       0.000
  -0.05148795  0.08917975  0.00000000       0.000
  -0.04891355  0.08472076  0.00000000       0.000
  -0.04633916  0.08026177  0.00000000       0.000
  -0.04376476  0.07580279  0.00000000       0.000
  -0.04119036  0.07134380  0.00000000       0.000
  -0.03861596  0.06688481  0.00000000       0.000
  -0.03604157  0.06242582  0.00000000       0.000
  -0.03346717  0.05796684  0.00000000       0.000
  -0.03089277  0.05350785  0.00000000       0.000
  -0.02831837  0.04904886  0.00000000       0.000
  -0.02574398  0.04458987  0.00000000       0.000
  -0.02316958  0.04013089  0.00000000       0.000
  -0.02059518  0.03567190  0.00000000       0.000
  -0.01802078  0.03121291  0.00000000       0.000
  -0.01544639  0.02675392  0.00000000       0.000
  -0.01287199  0.02229494  0.00000000       0.000
  -0.01029759  0.01783595  0.00000000       0.000
  -0.00772319  0.01337696  0.00000000       0.000
  -0.00514880  0.00891797  0.00000000       0.000
  -0.00257440  0.00445899  0.00000000       0.000
   0.00000000  0.00000000  0.00000000       0.000
 
 k-points in reciprocal lattice and weights: Automatically generated mesh            
   0.00000000  0.00000000  0.00000000       0.012
   0.11111111  0.00000000  0.00000000       0.012
  -0.11111111  0.00000000  0.00000000       0.012
   0.00000000  0.11111111  0.00000000       0.012
   0.00000000 -0.11111111  0.00000000       0.012
  -0.11111111  0.11111111  0.00000000       0.012
   0.11111111 -0.11111111  0.00000000       0.012
   0.22222222  0.00000000  0.00000000       0.012
  -0.22222222  0.00000000  0.00000000       0.012
   0.00000000  0.22222222  0.00000000       0.012
   0.00000000 -0.22222222  0.00000000       0.012
  -0.22222222  0.22222222  0.00000000       0.012
   0.22222222 -0.22222222  0.00000000       0.012
   0.33333333  0.00000000  0.00000000       0.012
  -0.33333333  0.00000000  0.00000000       0.012
   0.00000000  0.33333333  0.00000000       0.012
   0.00000000 -0.33333333  0.00000000       0.012
  -0.33333333  0.33333333  0.00000000       0.012
   0.33333333 -0.33333333  0.00000000       0.012
   0.44444444  0.00000000  0.00000000       0.012
  -0.44444444  0.00000000  0.00000000       0.012
   0.00000000  0.44444444  0.00000000       0.012
   0.00000000 -0.44444444  0.00000000       0.012
  -0.44444444  0.44444444  0.00000000       0.012
   0.44444444 -0.44444444  0.00000000       0.012
   0.11111111  0.11111111  0.00000000       0.012
  -0.11111111 -0.11111111  0.00000000       0.012
  -0.11111111  0.22222222  0.00000000       0.012
   0.11111111 -0.22222222  0.00000000       0.012
  -0.22222222  0.11111111  0.00000000       0.012
   0.22222222 -0.11111111  0.00000000       0.012
   0.22222222  0.11111111  0.00000000       0.012
  -0.22222222 -0.11111111  0.00000000       0.012
  -0.11111111  0.33333333  0.00000000       0.012
   0.11111111 -0.33333333  0.00000000       0.012
  -0.33333333  0.22222222  0.00000000       0.012
   0.33333333 -0.22222222  0.00000000       0.012
  -0.22222222  0.33333333  0.00000000       0.012
   0.22222222 -0.33333333  0.00000000       0.012
   0.11111111  0.22222222  0.00000000       0.012
  -0.11111111 -0.22222222  0.00000000       0.012
   0.33333333 -0.11111111  0.00000000       0.012
  -0.33333333  0.11111111  0.00000000       0.012
   0.33333333  0.11111111  0.00000000       0.012
  -0.33333333 -0.11111111  0.00000000       0.012
  -0.11111111  0.44444444  0.00000000       0.012
   0.11111111 -0.44444444  0.00000000       0.012
  -0.44444444  0.33333333  0.00000000       0.012
   0.44444444 -0.33333333  0.00000000       0.012
  -0.33333333  0.44444444  0.00000000       0.012
   0.33333333 -0.44444444  0.00000000       0.012
   0.11111111  0.33333333  0.00000000       0.012
  -0.11111111 -0.33333333  0.00000000       0.012
   0.44444444 -0.11111111  0.00000000       0.012
  -0.44444444  0.11111111  0.00000000       0.012
   0.44444444  0.11111111  0.00000000       0.012
  -0.44444444 -0.11111111  0.00000000       0.012
  -0.11111111 -0.44444444  0.00000000       0.012
   0.11111111  0.44444444  0.00000000       0.012
   0.44444444  0.44444444  0.00000000       0.012
  -0.44444444 -0.44444444  0.00000000       0.012
   0.22222222  0.22222222  0.00000000       0.012
  -0.22222222 -0.22222222  0.00000000       0.012
  -0.22222222  0.44444444  0.00000000       0.012
   0.22222222 -0.44444444  0.00000000       0.012
  -0.44444444  0.22222222  0.00000000       0.012
   0.44444444 -0.22222222  0.00000000       0.012
   0.33333333  0.22222222  0.00000000       0.012
  -0.33333333 -0.22222222  0.00000000       0.012
  -0.22222222 -0.44444444  0.00000000       0.012
   0.22222222  0.44444444  0.00000000       0.012
   0.44444444  0.33333333  0.00000000       0.012
  -0.44444444 -0.33333333  0.00000000       0.012
  -0.33333333 -0.44444444  0.00000000       0.012
   0.33333333  0.44444444  0.00000000       0.012
   0.22222222  0.33333333  0.00000000       0.012
  -0.22222222 -0.33333333  0.00000000       0.012
  -0.44444444 -0.22222222  0.00000000       0.012
   0.44444444  0.22222222  0.00000000       0.012
   0.33333333  0.33333333  0.00000000       0.012
  -0.33333333 -0.33333333  0.00000000       0.012
   0.00000000  0.00000000  0.00000000       0.000
   0.00854700  0.00854700  0.00000000       0.000
   0.01709400  0.01709400  0.00000000       0.000
   0.02564100  0.02564100  0.00000000       0.000
   0.03418800  0.03418800  0.00000000       0.000
   0.04273500  0.04273500  0.00000000       0.000
   0.05128200  0.05128200  0.00000000       0.000
   0.05982900  0.05982900  0.00000000       0.000
   0.06837600  0.06837600  0.00000000       0.000
   0.07692300  0.07692300  0.00000000       0.000
   0.08547000  0.08547000  0.00000000       0.000
   0.09401700  0.09401700  0.00000000       0.000
   0.10256400  0.10256400  0.00000000       0.000
   0.11111100  0.11111100  0.00000000       0.000
   0.11965800  0.11965800  0.00000000       0.000
   0.12820500  0.12820500  0.00000000       0.000
   0.13675200  0.13675200  0.00000000       0.000
   0.14529900  0.14529900  0.00000000       0.000
   0.15384600  0.15384600  0.00000000       0.000
   0.16239300  0.16239300  0.00000000       0.000
   0.17094000  0.17094000  0.00000000       0.000
   0.17948700  0.17948700  0.00000000       0.000
   0.18803400  0.18803400  0.00000000       0.000
   0.19658100  0.19658100  0.00000000       0.000
   0.20512800  0.20512800  0.00000000       0.000
   0.21367500  0.21367500  0.00000000       0.000
   0.22222200  0.22222200  0.00000000       0.000
   0.23076900  0.23076900  0.00000000       0.000
   0.23931600  0.23931600  0.00000000       0.000
   0.24786300  0.24786300  0.00000000       0.000
   0.25641000  0.25641000  0.00000000       0.000
   0.26495700  0.26495700  0.00000000       0.000
   0.27350400  0.27350400  0.00000000       0.000
   0.28205100  0.28205100  0.00000000       0.000
   0.29059800  0.29059800  0.00000000       0.000
   0.29914500  0.29914500  0.00000000       0.000
   0.30769200  0.30769200  0.00000000       0.000
   0.31623900  0.31623900  0.00000000       0.000
   0.32478600  0.32478600  0.00000000       0.000
   0.33333300  0.33333300  0.00000000       0.000
   0.33333300  0.33333300  0.00000000       0.000
   0.31623900  0.34188000  0.00000000       0.000
   0.29914500  0.35042700  0.00000000       0.000
   0.28205100  0.35897400  0.00000000       0.000
   0.26495700  0.36752100  0.00000000       0.000
   0.24786300  0.37606800  0.00000000       0.000
   0.23076900  0.38461500  0.00000000       0.000
   0.21367500  0.39316200  0.00000000       0.000
   0.19658100  0.40170900  0.00000000       0.000
   0.17948700  0.41025600  0.00000000       0.000
   0.16239300  0.41880300  0.00000000       0.000
   0.14529900  0.42735000  0.00000000       0.000
   0.12820500  0.43589700  0.00000000       0.000
   0.11111100  0.44444400  0.00000000       0.000
   0.09401700  0.45299100  0.00000000       0.000
   0.07692300  0.46153800  0.00000000       0.000
   0.05982900  0.47008500  0.00000000       0.000
   0.04273500  0.47863200  0.00000000       0.000
   0.02564100  0.48717900  0.00000000       0.000
   0.00854700  0.49572600  0.00000000       0.000
  -0.00854700  0.50427400  0.00000000       0.000
  -0.02564100  0.51282100  0.00000000       0.000
  -0.04273500  0.52136800  0.00000000       0.000
  -0.05982900  0.52991500  0.00000000       0.000
  -0.07692300  0.53846200  0.00000000       0.000
  -0.09401700  0.54700900  0.00000000       0.000
  -0.11111100  0.55555600  0.00000000       0.000
  -0.12820500  0.56410300  0.00000000       0.000
  -0.14529900  0.57265000  0.00000000       0.000
  -0.16239300  0.58119700  0.00000000       0.000
  -0.17948700  0.58974400  0.00000000       0.000
  -0.19658100  0.59829100  0.00000000       0.000
  -0.21367500  0.60683800  0.00000000       0.000
  -0.23076900  0.61538500  0.00000000       0.000
  -0.24786300  0.62393200  0.00000000       0.000
  -0.26495700  0.63247900  0.00000000       0.000
  -0.28205100  0.64102600  0.00000000       0.000
  -0.29914500  0.64957300  0.00000000       0.000
  -0.31623900  0.65812000  0.00000000       0.000
  -0.33333300  0.66666700  0.00000000       0.000
  -0.33333300  0.66666700  0.00000000       0.000
  -0.32478600  0.64957300  0.00000000       0.000
  -0.31623900  0.63247900  0.00000000       0.000
  -0.30769200  0.61538500  0.00000000       0.000
  -0.29914500  0.59829100  0.00000000       0.000
  -0.29059800  0.58119700  0.00000000       0.000
  -0.28205100  0.56410300  0.00000000       0.000
  -0.27350400  0.54700900  0.00000000       0.000
  -0.26495700  0.52991500  0.00000000       0.000
  -0.25641000  0.51282100  0.00000000       0.000
  -0.24786300  0.49572600  0.00000000       0.000
  -0.23931600  0.47863200  0.00000000       0.000
  -0.23076900  0.46153800  0.00000000       0.000
  -0.22222200  0.44444400  0.00000000       0.000
  -0.21367500  0.42735000  0.00000000       0.000
  -0.20512800  0.41025600  0.00000000       0.000
  -0.19658100  0.39316200  0.00000000       0.000
  -0.18803400  0.37606800  0.00000000       0.000
  -0.17948700  0.35897400  0.00000000       0.000
  -0.17094000  0.34188000  0.00000000       0.000
  -0.16239300  0.32478600  0.00000000       0.000
  -0.15384600  0.30769200  0.00000000       0.000
  -0.14529900  0.29059800  0.00000000       0.000
  -0.13675200  0.27350400  0.00000000       0.000
  -0.12820500  0.25641000  0.00000000       0.000
  -0.11965800  0.23931600  0.00000000       0.000
  -0.11111100  0.22222200  0.00000000       0.000
  -0.10256400  0.20512800  0.00000000       0.000
  -0.09401700  0.18803400  0.00000000       0.000
  -0.08547000  0.17094000  0.00000000       0.000
  -0.07692300  0.15384600  0.00000000       0.000
  -0.06837600  0.13675200  0.00000000       0.000
  -0.05982900  0.11965800  0.00000000       0.000
  -0.05128200  0.10256400  0.00000000       0.000
  -0.04273500  0.08547000  0.00000000       0.000
  -0.03418800  0.06837600  0.00000000       0.000
  -0.02564100  0.05128200  0.00000000       0.000
  -0.01709400  0.03418800  0.00000000       0.000
  -0.00854700  0.01709400  0.00000000       0.000
   0.00000000  0.00000000  0.00000000       0.000
 
 position of ions in fractional coordinates (direct lattice) 
   0.65636047  0.32818318  0.50045515
   0.98967035  0.99483369  0.38922010
   0.98971277  0.99485492  0.61169049
 
 position of ions in cartesian coordinates  (Angst):
   1.63433268  0.94359372  7.50682721
   1.63428164  2.86035015  5.83830150
   1.63438722  2.86041118  9.17535730
 
 Euler angles ALPHA=     0.0000000  BETA=     0.0000000

 transformation matrix from SAXIS to cartesian coordinates
 ---------------------------------------------------------
     1.0000000 m_x     0.0000000 m_y     0.0000000 m_z
     0.0000000 m_x     1.0000000 m_y     0.0000000 m_z
     0.0000000 m_x     0.0000000 m_y     1.0000000 m_z

 transformation matrix from cartesian coordinates to SAXIS
 ---------------------------------------------------------
     1.0000000 m_x     0.0000000 m_y     0.0000000 m_z
     0.0000000 m_x     1.0000000 m_y     0.0000000 m_z
     0.0000000 m_x     0.0000000 m_y     1.0000000 m_z




--------------------------------------------------------------------------------------------------------


 k-point   1 :   0.0000 0.0000 0.0000  plane waves:    2150
 k-point   2 :   0.1111 0.0000 0.0000  plane waves:    2122
 k-point   3 :  -0.1111 0.0000 0.0000  plane waves:    2122
 k-point   4 :   0.0000 0.1111 0.0000  plane waves:    2122
 k-point   5 :   0.0000-0.1111 0.0000  plane waves:    2122
 k-point   6 :  -0.1111 0.1111 0.0000  plane waves:    2122
 k-point   7 :   0.1111-0.1111 0.0000  plane waves:    2122
 k-point   8 :   0.2222 0.0000 0.0000  plane waves:    2166
 k-point   9 :  -0.2222 0.0000 0.0000  plane waves:    2166
 k-point  10 :   0.0000 0.2222 0.0000  plane waves:    2166
 k-point  11 :   0.0000-0.2222 0.0000  plane waves:    2166
 k-point  12 :  -0.2222 0.2222 0.0000  plane waves:    2166
 k-point  13 :   0.2222-0.2222 0.0000  plane waves:    2166
 k-point  14 :   0.3333 0.0000 0.0000  plane waves:    2170
 k-point  15 :  -0.3333 0.0000 0.0000  plane waves:    2170
 k-point  16 :   0.0000 0.3333 0.0000  plane waves:    2170
 k-point  17 :   0.0000-0.3333 0.0000  plane waves:    2170
 k-point  18 :  -0.3333 0.3333 0.0000  plane waves:    2170
 k-point  19 :   0.3333-0.3333 0.0000  plane waves:    2170
 k-point  20 :   0.4444 0.0000 0.0000  plane waves:    2198
 k-point  21 :  -0.4444 0.0000 0.0000  plane waves:    2198
 k-point  22 :   0.0000 0.4444 0.0000  plane waves:    2198
 k-point  23 :   0.0000-0.4444 0.0000  plane waves:    2198
 k-point  24 :  -0.4444 0.4444 0.0000  plane waves:    2198
 k-point  25 :   0.4444-0.4444 0.0000  plane waves:    2198
 k-point  26 :   0.1111 0.1111 0.0000  plane waves:    2164
 k-point  27 :  -0.1111-0.1111 0.0000  plane waves:    2164
 k-point  28 :  -0.1111 0.2222 0.0000  plane waves:    2164
 k-point  29 :   0.1111-0.2222 0.0000  plane waves:    2164
 k-point  30 :  -0.2222 0.1111 0.0000  plane waves:    2164
 k-point  31 :   0.2222-0.1111 0.0000  plane waves:    2164
 k-point  32 :   0.2222 0.1111 0.0000  plane waves:    2194
 k-point  33 :  -0.2222-0.1111 0.0000  plane waves:    2194
 k-point  34 :  -0.1111 0.3333 0.0000  plane waves:    2194
 k-point  35 :   0.1111-0.3333 0.0000  plane waves:    2194
 k-point  36 :  -0.3333 0.2222 0.0000  plane waves:    2194
 k-point  37 :   0.3333-0.2222 0.0000  plane waves:    2194
 k-point  38 :  -0.2222 0.3333 0.0000  plane waves:    2194
 k-point  39 :   0.2222-0.3333 0.0000  plane waves:    2194
 k-point  40 :   0.1111 0.2222 0.0000  plane waves:    2194
 k-point  41 :  -0.1111-0.2222 0.0000  plane waves:    2194
 k-point  42 :   0.3333-0.1111 0.0000  plane waves:    2194
 k-point  43 :  -0.3333 0.1111 0.0000  plane waves:    2194
 k-point  44 :   0.3333 0.1111 0.0000  plane waves:    2206
 k-point  45 :  -0.3333-0.1111 0.0000  plane waves:    2206
 k-point  46 :  -0.1111 0.4444 0.0000  plane waves:    2206
 k-point  47 :   0.1111-0.4444 0.0000  plane waves:    2206
 k-point  48 :  -0.4444 0.3333 0.0000  plane waves:    2206
 k-point  49 :   0.4444-0.3333 0.0000  plane waves:    2206
[...]
  2.341  -0.000  -0.000  -0.000   0.000  -2.932   0.000   0.000   0.000   0.000  -0.000   0.000  -0.000  -0.000   0.330   0.000
 -0.000   3.968  -0.000  -0.000   0.000   0.000  -5.201   0.000   0.000  -0.000   0.000  -0.000   0.000  -0.000  -0.000  -0.000
 -0.000  -0.000   1.692  -0.000  -0.000   0.000   0.000  -2.053   0.000   0.000  -0.187   0.030  -0.000  -0.000  -0.000   0.000
 -0.000  -0.000  -0.000   3.968  -0.000   0.000   0.000   0.000  -5.201   0.000   0.000  -0.000  -0.000   0.000  -0.000   0.000
  0.000   0.000  -0.000  -0.000   2.341   0.000  -0.000   0.000   0.000  -2.931   0.000  -0.000   0.330  -0.000  -0.000  -0.045
 -2.932   0.000   0.000   0.000   0.000   4.407  -0.000  -0.000  -0.000  -0.000   0.000  -0.000  -0.000   0.000  -0.401   0.000
  0.000  -5.201   0.000   0.000  -0.000  -0.000   7.245  -0.000  -0.000   0.000  -0.000   0.000  -0.000   0.000   0.000   0.000
  0.000   0.000  -2.053   0.000   0.000  -0.000  -0.000   3.376  -0.000  -0.000   0.358  -0.050   0.000   0.000  -0.000  -0.000
  0.000   0.000   0.000  -5.201   0.000  -0.000  -0.000  -0.000   7.245  -0.000  -0.000   0.000   0.000  -0.000   0.000  -0.000
  0.000  -0.000   0.000   0.000  -2.931  -0.000   0.000  -0.000  -0.000   4.407  -0.000   0.000  -0.401   0.000   0.000   0.050
 -0.000   0.000  -0.187   0.000   0.000   0.000  -0.000   0.358  -0.000  -0.000   2.100  -0.252   0.000  -0.000  -0.000  -0.000
  0.000  -0.000   0.030  -0.000  -0.000  -0.000   0.000  -0.050   0.000   0.000  -0.252   0.031  -0.000   0.000   0.000   0.000
 -0.000   0.000  -0.000  -0.000   0.330  -0.000  -0.000   0.000   0.000  -0.401   0.000  -0.000   0.305  -0.000  -0.000  -0.037
 -0.000  -0.000  -0.000   0.000  -0.000   0.000   0.000   0.000  -0.000   0.000  -0.000   0.000  -0.000   0.381  -0.000   0.000
  0.330  -0.000  -0.000  -0.000  -0.000  -0.401   0.000  -0.000   0.000   0.000  -0.000   0.000  -0.000  -0.000   0.305   0.000
  0.000  -0.000   0.000   0.000  -0.045   0.000   0.000  -0.000  -0.000   0.050  -0.000   0.000  -0.037   0.000   0.000   0.005
  0.000   0.000   0.000   0.000   0.000  -0.000  -0.000  -0.000  -0.000  -0.000  -0.000   0.000   0.000  -0.045   0.000  -0.000
 -0.045   0.000   0.000   0.000   0.000   0.050  -0.000   0.000  -0.000  -0.000   0.000  -0.000   0.000   0.000  -0.037  -0.000
 total augmentation occupancy for first ion, spin component:           2
 -0.000   0.000   0.000  -0.000   0.000   0.000  -0.000  -0.000   0.000  -0.000  -0.000   0.000   0.000   0.000  -0.000  -0.000
  0.000  -0.000  -0.000   0.000  -0.000  -0.000   0.000   0.000  -0.000   0.000  -0.000   0.000  -0.000  -0.000  -0.000   0.000
  0.000  -0.000  -0.000   0.000   0.000  -0.000   0.000  -0.000  -0.000  -0.000  -0.000   0.000   0.000  -0.000   0.000  -0.000
 -0.000   0.000   0.000  -0.000  -0.000   0.000  -0.000  -0.000   0.000   0.000  -0.000  -0.000  -0.000   0.000  -0.000  -0.000
  0.000  -0.000   0.000  -0.000  -0.000  -0.000   0.000  -0.000   0.000   0.000   0.000  -0.000  -0.000   0.000   0.000   0.000
  0.000  -0.000  -0.000   0.000  -0.000  -0.000   0.000   0.000  -0.000   0.000   0.000  -0.000  -0.000  -0.000   0.000   0.000
 -0.000   0.000   0.000  -0.000   0.000   0.000  -0.000  -0.000   0.000  -0.000   0.000  -0.000   0.000   0.000   0.000  -0.000
 -0.000   0.000  -0.000  -0.000  -0.000   0.000  -0.000   0.000   0.000   0.000   0.000  -0.000  -0.000   0.000  -0.000   0.000
  0.000  -0.000  -0.000   0.000   0.000  -0.000   0.000   0.000  -0.000  -0.000   0.000   0.000   0.000  -0.000   0.000   0.000
 -0.000   0.000  -0.000   0.000   0.000   0.000  -0.000   0.000  -0.000  -0.000  -0.000   0.000   0.000  -0.000  -0.000  -0.000
 -0.000  -0.000  -0.000  -0.000   0.000   0.000   0.000   0.000   0.000  -0.000   0.000  -0.000  -0.000  -0.000  -0.000  -0.000
  0.000   0.000   0.000  -0.000  -0.000  -0.000  -0.000  -0.000   0.000   0.000  -0.000   0.000  -0.000   0.000  -0.000   0.000
  0.000  -0.000   0.000  -0.000  -0.000  -0.000   0.000  -0.000   0.000   0.000  -0.000  -0.000   0.000  -0.000   0.000  -0.000
  0.000  -0.000  -0.000   0.000   0.000  -0.000   0.000   0.000  -0.000  -0.000  -0.000   0.000  -0.000   0.000   0.000  -0.000
 -0.000  -0.000   0.000  -0.000   0.000   0.000   0.000  -0.000   0.000  -0.000  -0.000  -0.000   0.000   0.000  -0.000  -0.000
 -0.000   0.000  -0.000  -0.000   0.000   0.000  -0.000   0.000   0.000  -0.000  -0.000   0.000  -0.000  -0.000  -0.000   0.000
 -0.000   0.000   0.000  -0.000  -0.000   0.000  -0.000  -0.000   0.000   0.000  -0.000  -0.000  -0.000   0.000  -0.000   0.000
  0.000   0.000  -0.000   0.000  -0.000  -0.000  -0.000   0.000  -0.000   0.000   0.000  -0.000  -0.000  -0.000   0.000   0.000
 total augmentation occupancy for first ion, spin component:           3
 -0.000   0.000  -0.000   0.000  -0.000   0.000  -0.000   0.000  -0.000   0.000   0.000  -0.000  -0.000   0.000  -0.000   0.000
  0.000  -0.000  -0.000  -0.000   0.000  -0.000   0.000   0.000   0.000  -0.000   0.000  -0.000   0.000  -0.000   0.000  -0.000
 -0.000  -0.000  -0.000   0.000   0.000   0.000   0.000   0.000  -0.000  -0.000   0.000  -0.000  -0.000   0.000  -0.000   0.000
  0.000  -0.000   0.000  -0.000   0.000  -0.000   0.000  -0.000   0.000  -0.000  -0.000   0.000   0.000  -0.000   0.000  -0.000
 -0.000   0.000   0.000   0.000  -0.000   0.000  -0.000  -0.000  -0.000   0.000  -0.000  -0.000  -0.000  -0.000  -0.000   0.000
  0.000  -0.000   0.000  -0.000   0.000  -0.000   0.000  -0.000   0.000  -0.000  -0.000  -0.000   0.000  -0.000   0.000  -0.000
 -0.000   0.000   0.000   0.000  -0.000   0.000  -0.000  -0.000  -0.000   0.000  -0.000   0.000  -0.000   0.000  -0.000   0.000
  0.000   0.000   0.000  -0.000  -0.000  -0.000  -0.000  -0.000   0.000   0.000   0.000  -0.000   0.000  -0.000   0.000   0.000
 -0.000   0.000  -0.000   0.000  -0.000   0.000  -0.000   0.000  -0.000   0.000   0.000  -0.000  -0.000   0.000  -0.000   0.000
  0.000  -0.000  -0.000  -0.000   0.000  -0.000   0.000   0.000   0.000  -0.000   0.000   0.000   0.000   0.000   0.000  -0.000
  0.000   0.000   0.000  -0.000  -0.000  -0.000  -0.000   0.000   0.000   0.000   0.000  -0.000   0.000   0.000   0.000   0.000
 -0.000  -0.000  -0.000   0.000  -0.000  -0.000   0.000  -0.000  -0.000   0.000  -0.000   0.000  -0.000  -0.000   0.000  -0.000
 -0.000   0.000  -0.000   0.000  -0.000   0.000  -0.000   0.000  -0.000   0.000   0.000  -0.000  -0.000   0.000   0.000   0.000
  0.000  -0.000   0.000  -0.000  -0.000  -0.000   0.000  -0.000   0.000   0.000   0.000  -0.000   0.000   0.000   0.000  -0.000
 -0.000   0.000  -0.000   0.000  -0.000   0.000  -0.000   0.000  -0.000   0.000   0.000   0.000   0.000   0.000  -0.000  -0.000
  0.000  -0.000   0.000  -0.000   0.000  -0.000   0.000   0.000   0.000  -0.000   0.000  -0.000   0.000  -0.000  -0.000  -0.000
 -0.000   0.000  -0.000   0.000  -0.000   0.000  -0.000   0.000  -0.000  -0.000  -0.000   0.000  -0.000   0.000  -0.000  -0.000
  0.000  -0.000   0.000  -0.000  -0.000  -0.000   0.000  -0.000   0.000  -0.000  -0.000  -0.000   0.000  -0.000   0.000  -0.000
 total augmentation occupancy for first ion, spin component:           4
  0.000   0.000  -0.000   0.000   0.000  -0.000  -0.000   0.000  -0.000  -0.000   0.000   0.000  -0.000   0.000   0.000   0.000
  0.000   0.000   0.000   0.000   0.000  -0.000  -0.000  -0.000  -0.000  -0.000  -0.000   0.000   0.000   0.000   0.000  -0.000
 -0.000   0.000   0.000   0.000  -0.000   0.000  -0.000  -0.000  -0.000  -0.000  -0.000   0.000   0.000   0.000   0.000  -0.000
  0.000   0.000   0.000   0.000   0.000  -0.000  -0.000  -0.000  -0.000  -0.000  -0.000   0.000   0.000   0.000   0.000  -0.000
  0.000   0.000  -0.000   0.000   0.000  -0.000  -0.000  -0.000  -0.000  -0.000  -0.000   0.000   0.000   0.000  -0.000  -0.000
 -0.000  -0.000   0.000  -0.000  -0.000   0.000   0.000  -0.000   0.000   0.000   0.000  -0.000  -0.000  -0.000  -0.000   0.000
 -0.000  -0.000  -0.000  -0.000  -0.000   0.000   0.000   0.000   0.000   0.000   0.000  -0.000  -0.000  -0.000  -0.000   0.000
  0.000  -0.000  -0.000  -0.000  -0.000  -0.000   0.000   0.000   0.000   0.000   0.000   0.000  -0.000  -0.000  -0.000   0.000
 -0.000  -0.000  -0.000  -0.000  -0.000   0.000   0.000   0.000   0.000   0.000   0.000  -0.000  -0.000  -0.000  -0.000   0.000
 -0.000  -0.000  -0.000  -0.000  -0.000   0.000   0.000   0.000   0.000   0.000   0.000  -0.000  -0.000  -0.000  -0.000   0.000
  0.000  -0.000  -0.000  -0.000  -0.000   0.000   0.000   0.000   0.000   0.000  -0.000   0.000  -0.000   0.000   0.000   0.000
  0.000   0.000   0.000   0.000   0.000  -0.000  -0.000   0.000  -0.000  -0.000   0.000  -0.000  -0.000  -0.000  -0.000   0.000
 -0.000   0.000   0.000   0.000   0.000  -0.000  -0.000  -0.000  -0.000  -0.000  -0.000  -0.000   0.000   0.000  -0.000  -0.000
  0.000   0.000   0.000   0.000   0.000  -0.000  -0.000  -0.000  -0.000  -0.000   0.000  -0.000   0.000  -0.000  -0.000  -0.000
  0.000   0.000   0.000   0.000  -0.000  -0.000  -0.000  -0.000  -0.000  -0.000   0.000  -0.000  -0.000  -0.000   0.000  -0.000
  0.000  -0.000  -0.000  -0.000  -0.000   0.000   0.000   0.000   0.000   0.000   0.000   0.000  -0.000  -0.000  -0.000   0.000
 -0.000  -0.000  -0.000  -0.000  -0.000   0.000   0.000   0.000   0.000   0.000   0.000   0.000  -0.000  -0.000  -0.000   0.000
 -0.000  -0.000  -0.000  -0.000   0.000   0.000   0.000   0.000   0.000   0.000  -0.000   0.000   0.000  -0.000  -0.000   0.000


------------------------ aborting loop because EDIFF is reached ----------------------------------------





 total charge

# of ion       s       p       d       tot
------------------------------------------
    1        0.411   0.532   4.334   5.277
    2        1.490   2.364   0.060   3.914
    3        1.490   2.364   0.060   3.914
--------------------------------------------------
tot          3.390   5.261   4.455  13.106



 magnetization (x)

# of ion       s       p       d       tot
------------------------------------------
    1        0.000   0.000   0.000   0.000
    2       -0.000  -0.000   0.000  -0.000
    3        0.000   0.000  -0.000   0.000
--------------------------------------------------
tot         -0.000  -0.000   0.000   0.000



 magnetization (y)

# of ion       s       p       d       tot
------------------------------------------
    1        0.000   0.000   0.000   0.000
    2       -0.000  -0.000   0.000  -0.000
    3       -0.000  -0.000   0.000  -0.000
--------------------------------------------------
tot         -0.000  -0.000   0.000   0.000



 magnetization (z)

# of ion       s       p       d       tot
------------------------------------------
    1       -0.000  -0.000  -0.000  -0.000
    2        0.000   0.000  -0.000   0.000
    3        0.000   0.000  -0.000   0.000
--------------------------------------------------
tot          0.000   0.000  -0.000  -0.000
 
    FORLOC:  cpu time      0.0001: real time      0.0001
    FORHF :  cpu time    120.9822: real time    121.6896
    FORNL :  cpu time      0.0419: real time      0.0422
    FORCOR:  cpu time      0.0746: real time      0.0750
    OFIELD:  cpu time      0.0000: real time      0.0000

 VOLUME and BASIS-vectors are now :
 -----------------------------------------------------------------------------
  energy-cutoff  :      224.58
  volume of cell :      143.19
      direct lattice vectors                 reciprocal lattice vectors
     3.320000000  0.000000000  0.000000000     0.301204819  0.173900683  0.000000000
    -1.660000000  2.875204341  0.000000000     0.000000000  0.347801367  0.000000000
     0.000000000  0.000000000 15.000000000     0.000000000  0.000000000  0.066666667

  length of vectors
     3.320000000  3.320000000 15.000000000     0.347801367  0.347801367  0.066666667


 FORCES acting on ions:
    Electron-Ion                     Ewald-Force                    Non-Local-Force
 -----------------------------------------------------------------------------------------------
   -.758E-04 0.650E-03 0.452E-04   0.840E-04 -.764E-03 -.105E-04   -.145E-04 -.165E-03 -.472E-04
   -.907E-03 -.880E-03 0.430E+03   0.106E-02 0.102E-02 -.432E+03   0.167E-03 0.175E-03 0.263E+01
   0.996E-03 0.218E-03 -.430E+03   -.114E-02 -.255E-03 0.432E+03   -.213E-03 -.456E-04 -.263E+01
 -----------------------------------------------------------------------------------------------
   0.915E-05 -.178E-05 0.617E-05   -.962E-14 -.634E-15 0.000E+00   -.609E-04 -.358E-04 -.287E-04
 
 
 POSITION                                       TOTAL-FORCE (eV/Angst)
 -----------------------------------------------------------------------------------
      1.63433      0.94359      7.50683         0.000024     -0.000249      0.000003
      1.63428      2.86035      5.83830         0.000336      0.000327      0.539796
      1.63439      2.86041      9.17536        -0.000360     -0.000078     -0.539799
 -----------------------------------------------------------------------------------
    total drift:                               -0.000075     -0.000047     -0.000042


--------------------------------------------------------------------------------------------------------



  FREE ENERGIE OF THE ION-ELECTRON SYSTEM (eV)
  ---------------------------------------------------
  free  energy   TOTEN  =       -23.96811729 eV

  energy  without entropy=      -23.96811729  energy(sigma->0) =      -23.96811729
 


--------------------------------------------------------------------------------------------------------


    POTLOK:  cpu time      0.0736: real time      0.0739


--------------------------------------------------------------------------------------------------------


 writing wavefunctions
     LOOP+:  cpu time   3227.6782: real time   3247.8541
    4ORBIT:  cpu time      0.0000: real time      0.0000

 Spin-Orbit-Coupling matrix elements

 Ion:    1  E_soc:     -0.0327693
 l=   1
     0.0000000    -0.0021225    -0.0018871
    -0.0021225     0.0000000    -0.0021225
    -0.0018871    -0.0021225     0.0000000
 l=   2
     0.0000000    -0.0005574     0.0000000    -0.0005575    -0.0034405
    -0.0005574     0.0000000    -0.0020429    -0.0004970    -0.0005575
     0.0000000    -0.0020429     0.0000000    -0.0020426     0.0000000
    -0.0005575    -0.0004970    -0.0020426     0.0000000    -0.0005572
    -0.0034405    -0.0005575     0.0000000    -0.0005572     0.0000000
 l=   3
     0.0000000     0.0000000     0.0000000     0.0000000     0.0000000     0.0000000     0.0000000
     0.0000000     0.0000000     0.0000000     0.0000000     0.0000000     0.0000000     0.0000000
     0.0000000     0.0000000     0.0000000     0.0000000     0.0000000     0.0000000     0.0000000
     0.0000000     0.0000000     0.0000000     0.0000000     0.0000000     0.0000000     0.0000000
     0.0000000     0.0000000     0.0000000     0.0000000     0.0000000     0.0000000     0.0000000
     0.0000000     0.0000000     0.0000000     0.0000000     0.0000000     0.0000000     0.0000000
     0.0000000     0.0000000     0.0000000     0.0000000     0.0000000     0.0000000     0.0000000

 Ion:    2  E_soc:     -0.0399164
 l=   1
     0.0000000    -0.0065340    -0.0068943
    -0.0065340     0.0000000    -0.0065340
    -0.0068943    -0.0065340     0.0000000
 l=   2
     0.0000000     0.0000007     0.0000000     0.0000007    -0.0000052
     0.0000007     0.0000000    -0.0000005     0.0000076     0.0000007
     0.0000000    -0.0000005     0.0000000    -0.0000005     0.0000000
     0.0000007     0.0000076    -0.0000005     0.0000000     0.0000007
    -0.0000052     0.0000007     0.0000000     0.0000007     0.0000000
 l=   3
     0.0000000     0.0000000     0.0000000     0.0000000     0.0000000     0.0000000     0.0000000
     0.0000000     0.0000000     0.0000000     0.0000000     0.0000000     0.0000000     0.0000000
     0.0000000     0.0000000     0.0000000     0.0000000     0.0000000     0.0000000     0.0000000
     0.0000000     0.0000000     0.0000000     0.0000000     0.0000000     0.0000000     0.0000000
     0.0000000     0.0000000     0.0000000     0.0000000     0.0000000     0.0000000     0.0000000
     0.0000000     0.0000000     0.0000000     0.0000000     0.0000000     0.0000000     0.0000000
     0.0000000     0.0000000     0.0000000     0.0000000     0.0000000     0.0000000     0.0000000

 Ion:    3  E_soc:     -0.0399163
 l=   1
     0.0000000    -0.0065340    -0.0068943
    -0.0065340     0.0000000    -0.0065339
    -0.0068943    -0.0065339     0.0000000
 l=   2
     0.0000000     0.0000007     0.0000000     0.0000007    -0.0000052
     0.0000007     0.0000000    -0.0000005     0.0000076     0.0000007
     0.0000000    -0.0000005     0.0000000    -0.0000005     0.0000000
     0.0000007     0.0000076    -0.0000005     0.0000000     0.0000007
    -0.0000052     0.0000007     0.0000000     0.0000007     0.0000000
 l=   3
     0.0000000     0.0000000     0.0000000     0.0000000     0.0000000     0.0000000     0.0000000
     0.0000000     0.0000000     0.0000000     0.0000000     0.0000000     0.0000000     0.0000000
     0.0000000     0.0000000     0.0000000     0.0000000     0.0000000     0.0000000     0.0000000
     0.0000000     0.0000000     0.0000000     0.0000000     0.0000000     0.0000000     0.0000000
     0.0000000     0.0000000     0.0000000     0.0000000     0.0000000     0.0000000     0.0000000
     0.0000000     0.0000000     0.0000000     0.0000000     0.0000000     0.0000000     0.0000000
     0.0000000     0.0000000     0.0000000     0.0000000     0.0000000     0.0000000     0.0000000



 total charge

# of ion       s       p       d       tot
------------------------------------------
    1        0.411   0.532   4.334   5.277
    2        1.490   2.364   0.060   3.914
    3        1.490   2.364   0.060   3.914
--------------------------------------------------
tot          3.390   5.261   4.455  13.106



 magnetization (x)

# of ion       s       p       d       tot
------------------------------------------
    1        0.000   0.000   0.000   0.000
    2       -0.000  -0.000   0.000  -0.000
    3        0.000   0.000  -0.000   0.000
--------------------------------------------------
tot         -0.000  -0.000   0.000   0.000



 magnetization (y)

# of ion       s       p       d       tot
------------------------------------------
    1        0.000   0.000   0.000   0.000
    2       -0.000  -0.000   0.000  -0.000
    3       -0.000  -0.000   0.000  -0.000
--------------------------------------------------
tot         -0.000  -0.000   0.000   0.000



 magnetization (z)

# of ion       s       p       d       tot
------------------------------------------
    1       -0.000  -0.000  -0.000  -0.000
    2        0.000   0.000  -0.000   0.000
    3        0.000   0.000  -0.000   0.000
--------------------------------------------------
tot          0.000   0.000  -0.000  -0.000
 

 total amount of memory used by VASP MPI-rank0    59831. kBytes
=======================================================================

   base      :      30000. kBytes
   nonl-proj :       9269. kBytes
   fftplans  :        503. kBytes
   grid      :       1556. kBytes
   one-center:         62. kBytes
   HF        :         64. kBytes
   nonlr-proj:        361. kBytes
   wavefun   :      14199. kBytes
   fock_wrk  :       3817. kBytes
 
  
  
 General timing and accounting informations for this job:
 ========================================================
  
                  Total CPU time used (sec):     3233.139
                            User time (sec):     3231.720
                          System time (sec):        1.419
                         Elapsed time (sec):     3254.874
  
                   Maximum memory used (kb):      494564.
                   Average memory used (kb):          N/A
  
                          Minor page faults:        32110
                          Major page faults:          130
                 Voluntary context switches:         4405
