 vasp.6.3.0 20Jan22 (build Oct 03 2022 14:51:58) complex                        
  
 executed on             LinuxIFC date 2025.02.09  21:50:29
 running on   48 total cores
 distrk:  each k-point on   48 cores,    1 groups
 distr:  one band on NCORE=   6 cores,    8 groups


--------------------------------------------------------------------------------------------------------


 INCAR:
   SYSTEM = MoSe2
   PREC = Normal
   ISPIN = 1
   ISTART = 0
   ICHARG = 2
   NPAR = 8
   ISMEAR = 0
   SIGMA = 0.1
   ALGO = Normal
   NELMIN = 4
   NELM = 200
   EDIFF = 1E-6
   EDIFFG = -0.001
   ISYM = 0
   IBRION = -1
   LORBIT = 11
   NWRITE = 1
   LWAVE = .TRUE.
   LCHARG = .TRUE.
   LSORBIT = .TRUE.

 POTCAR:    PAW_PBE Mo 08Apr2002                  
 POTCAR:    PAW_PBE Se 06Sep2000                  
 -----------------------------------------------------------------------------
|                                                                             |
|           W    W    AA    RRRRR   N    N  II  N    N   GGGG   !!!           |
|           W    W   A  A   R    R  NN   N  II  NN   N  G    G  !!!           |
|           W    W  A    A  R    R  N N  N  II  N N  N  G       !!!           |
|           W WW W  AAAAAA  RRRRR   N  N N  II  N  N N  G  GGG   !            |
|           WW  WW  A    A  R   R   N   NN  II  N   NN  G    G                |
|           W    W  A    A  R    R  N    N  II  N    N   GGGG   !!!           |
|                                                                             |
|     You use a magnetic or noncollinear calculation, but did not specify     |
|     the initial magnetic moment with the MAGMOM tag. Note that a            |
|     default of 1 will be used for all atoms. This ferromagnetic setup       |
|     may break the symmetry of the crystal, in particular it may rule        |
|     out finding an antiferromagnetic solution. Thence, we recommend         |
|     setting the initial magnetic moment manually or verifying carefully     |
|     that this magnetic setup is desired.                                    |
|                                                                             |
 -----------------------------------------------------------------------------

 POTCAR:    PAW_PBE Mo 08Apr2002                  
  local pseudopotential read in
  partial core-charges read in
  partial kinetic energy density read in
  atomic valenz-charges read in
  non local Contribution for L=           2  read in
    real space projection operators read in
  non local Contribution for L=           2  read in
    real space projection operators read in
  non local Contribution for L=           0  read in
    real space projection operators read in
  non local Contribution for L=           0  read in
    real space projection operators read in
  non local Contribution for L=           1  read in
    real space projection operators read in
  non local Contribution for L=           1  read in
    real space projection operators read in
    PAW grid and wavefunctions read in
 
   number of l-projection  operators is LMAX  =           6
   number of lm-projection operators is LMMAX =          18
 
 POTCAR:    PAW_PBE Se 06Sep2000                  
  local pseudopotential read in
  partial core-charges read in
  partial kinetic energy density read in
  atomic valenz-charges read in
  non local Contribution for L=           0  read in
    real space projection operators read in
  non local Contribution for L=           0  read in
    real space projection operators read in
  non local Contribution for L=           1  read in
    real space projection operators read in
  non local Contribution for L=           1  read in
    real space projection operators read in
  non local Contribution for L=           2  read in
    real space projection operators read in
    PAW grid and wavefunctions read in
 
   number of l-projection  operators is LMAX  =           5
   number of lm-projection operators is LMMAX =          13
 
 -----------------------------------------------------------------------------
|                                                                             |
|               ----> ADVICE to this user running VASP <----                  |
|                                                                             |
|     You have a (more or less) 'large supercell' and for larger cells it     |
|     might be more efficient to use real-space projection operators.         |
|     Therefore, try LREAL= Auto in the INCAR file.                           |
|     Mind: For very accurate calculation, you might also keep the            |
|     reciprocal projection scheme (i.e. LREAL=.FALSE.).                      |
|                                                                             |
 -----------------------------------------------------------------------------

  PAW_PBE Mo 08Apr2002                  :
 energy of atom  1       EATOM= -217.5176
 kinetic energy error for atom=    0.0303 (will be added to EATOM!!)
  PAW_PBE Se 06Sep2000                  :
 energy of atom  2       EATOM= -257.1286
 kinetic energy error for atom=    0.0119 (will be added to EATOM!!)
 
 
 POSCAR: Mo Se
  positions in direct lattice
  velocities in cartesian coordinates
 exchange correlation table for  LEXCH =        8
   RHO(1)=    0.500       N(1)  =     2000
   RHO(2)=  100.500       N(2)  =     4000

 VTST: version 4.2, (08/11/21)

 CHAIN: initializing optimizer
 
 OPT: Using VASP Dynamics algorithm
 CHAIN: Read ICHAIN            0
 
 POSCAR: Mo Se
  positions in direct lattice
  velocities in cartesian coordinates
 


--------------------------------------------------------------------------------------------------------


 ion  position               nearest neighbor table
   1  0.915  0.833  0.500-  36 2.54  32 2.54  29 2.54  35 2.54  15 2.55  14 2.55   5 3.32   7 3.32
                             4 3.32   3 3.32   9 3.32   2 3.32
   2  0.664  0.667  0.500-  20 2.54  14 2.54  15 2.54  13 2.54  16 2.55  17 2.55  11 3.32  12 3.32
                             9 3.32   8 3.32   1 3.32   4 3.32
   3  0.915  0.167  0.500-  36 2.54  33 2.54  34 2.54  35 2.54  18 2.55  19 2.55   6 3.32   7 3.32
                             4 3.32   1 3.32   9 3.32   8 3.32
   4  0.915  0.500  0.500-  33 2.54  32 2.54  34 2.54  29 2.54  13 2.55  20 2.55   6 3.32   5 3.32
                             3 3.32   1 3.32   2 3.32   8 3.32
   5  0.164  0.667  0.500-  27 2.54  21 2.54  22 2.54  28 2.54  29 2.55  32 2.55   4 3.32   1 3.32
                             7 3.32   6 3.32  12 3.32  11 3.32
   6  0.164  0.333  0.500-  27 2.54  30 2.54  31 2.54  28 2.54  34 2.55  33 2.55   4 3.32   3 3.32
                             7 3.32   5 3.32  10 3.32  11 3.32
   7  0.164  0.000  0.500-  30 2.54  21 2.54  31 2.54  22 2.54  35 2.55  36 2.55   3 3.32   1 3.32
                             6 3.32   5 3.32  10 3.32  12 3.32
   8  0.664  0.333  0.500-  20 2.54  19 2.54  18 2.54  13 2.54  25 2.55  26 2.55  11 3.32  10 3.32
                             9 3.32   2 3.32   3 3.32   4 3.32
   9  0.664  0.000  0.500-  19 2.54  14 2.54  18 2.54  15 2.54  24 2.55  23 2.55  12 3.32  10 3.32
                             8 3.32   2 3.32   3 3.32   1 3.32
  10  0.415  0.167  0.500-  23 2.54  26 2.54  25 2.54  24 2.54  31 2.55  30 2.55   8 3.32   9 3.32
                            11 3.32  12 3.32   7 3.32   6 3.32
  11  0.415  0.500  0.500-  26 2.54  17 2.54  25 2.54  16 2.54  28 2.55  27 2.55   8 3.32   2 3.32
                            10 3.32  12 3.32   6 3.32   5 3.32
  12  0.415  0.833  0.500-  23 2.54  17 2.54  16 2.54  24 2.54  22 2.55  21 2.55   2 3.32   9 3.32
                            11 3.32  10 3.32   7 3.32   5 3.32
  13  0.747  0.500  0.612-   2 2.54   8 2.54   4 2.55
  14  0.747  0.833  0.389-   9 2.54   2 2.54   1 2.55
  15  0.747  0.833  0.612-   9 2.54   2 2.54   1 2.55
  16  0.497  0.667  0.612-  11 2.54  12 2.54   2 2.55
  17  0.497  0.667  0.389-  11 2.54  12 2.54   2 2.55
  18  0.747  0.167  0.612-   9 2.54   8 2.54   3 2.55
  19  0.747  0.167  0.389-   9 2.54   8 2.54   3 2.55
  20  0.747  0.500  0.389-   2 2.54   8 2.54   4 2.55
  21  0.247  0.833  0.389-   7 2.54   5 2.54  12 2.55
  22  0.247  0.833  0.612-   7 2.54   5 2.54  12 2.55
  23  0.497  0.000  0.389-  12 2.54  10 2.54   9 2.55
  24  0.497  0.000  0.612-  12 2.54  10 2.54   9 2.55
  25  0.497  0.333  0.612-  11 2.54  10 2.54   8 2.55
  26  0.497  0.333  0.389-  11 2.54  10 2.54   8 2.55
  27  0.247  0.500  0.389-   5 2.54   6 2.54  11 2.55
  28  0.247  0.500  0.612-   5 2.54   6 2.54  11 2.55
  29  0.997  0.667  0.612-   4 2.54   1 2.54   5 2.55
  30  0.247  0.167  0.389-   7 2.54   6 2.54  10 2.55
  31  0.247  0.167  0.612-   7 2.54   6 2.54  10 2.55
  32  0.997  0.667  0.389-   4 2.54   1 2.54   5 2.55
  33  0.997  0.333  0.389-   4 2.54   3 2.54   6 2.55
  34  0.997  0.333  0.612-   4 2.54   3 2.54   6 2.55
  35  0.997  1.000  0.612-   1 2.54   3 2.54   7 2.55
  36  0.997  1.000  0.389-   1 2.54   3 2.54   7 2.55
 

IMPORTANT INFORMATION: All symmetrisations will be switched off!
NOSYMM: (Re-)initialisation of all symmetry stuff for point group C_1.


----------------------------------------------------------------------------------------

                                     Primitive cell                                     

  volume of cell :    1718.2221

  direct lattice vectors                    reciprocal lattice vectors
     9.960000000  5.750408681  0.000000000     0.075301205  0.043475171  0.000000000
    -4.980000000  8.625613022  0.000000000    -0.050200803  0.086950342  0.000000000
     0.000000000  0.000000000 15.000000000     0.000000000  0.000000000  0.066666667

  length of vectors
    11.500817362  9.960000000 15.000000000     0.086950342  0.100401606  0.066666667

  position of ions in fractional coordinates (direct lattice)
     0.914501067  0.833331558  0.500454366
     0.664492915  0.666668392  0.500454345
     0.914501061  0.166668434  0.500454366
     0.914504667  0.499999980  0.500454872
     0.164492929  0.666668423  0.500454345
     0.164492925  0.333331533  0.500454345
     0.164496571  0.000000023  0.500454857
     0.664492882  0.333331570  0.500454347
     0.664496574  0.000000019  0.500454855
     0.414501037  0.166668483  0.500454367
     0.414504685  0.499999956  0.500454874
     0.414501056  0.833331536  0.500454365
     0.747239920  0.500000016  0.611628017
     0.747226185  0.833341212  0.389281519
     0.747230310  0.833339675  0.611628853
     0.497205288  0.666660468  0.611631429
     0.497201088  0.666658925  0.389278970
     0.747230322  0.166660310  0.611628855
     0.747226194  0.166658772  0.389281520
     0.747235293  0.500000012  0.389284815
     0.247226198  0.833341226  0.389281518
     0.247230322  0.833339693  0.611628859
     0.497210268  0.000000004  0.389282263
     0.497214968  0.000000002  0.611630608
     0.497205277  0.333339557  0.611631428
     0.497201083  0.333341097  0.389278976
     0.247235301  0.500000012  0.389284815
     0.247239918  0.500000015  0.611628013
     0.997205273  0.666660475  0.611631431
     0.247226203  0.166658754  0.389281531
     0.247230323  0.166660294  0.611628848
     0.997201079  0.666658937  0.389278966
     0.997201083  0.333341090  0.389278966
     0.997205278  0.333339553  0.611631427
     0.997214968  0.999999996  0.611630603
     0.997210267  0.999999995  0.389282269

  ion indices of the primitive-cell ions
   primitive index   ion index
                 1           1
                 2           2
                 3           3
                 4           4
                 5           5
                 6           6
                 7           7
                 8           8
                 9           9
                10          10
                11          11
                12          12
                13          13
                14          14
                15          15
                16          16
                17          17
                18          18
                19          19
                20          20
                21          21
                22          22
                23          23
                24          24
                25          25
                26          26
                27          27
                28          28
                29          29
                30          30
                31          31
                32          32
                33          33
                34          34
                35          35
                36          36

----------------------------------------------------------------------------------------

 
 
 KPOINTS: Automatic mesh                          

Automatic generation of k-mesh.
 Grid dimensions read from file:
 generate k-points for:    1    1    1

 Generating k-lattice:

  Cartesian coordinates                     Fractional coordinates (reciprocal lattice)
     0.075301205  0.043475171  0.000000000     1.000000000  0.000000000  0.000000000
    -0.050200803  0.086950342  0.000000000    -0.000000000  1.000000000  0.000000000
     0.000000000  0.000000000  0.066666667     0.000000000  0.000000000  1.000000000

  Length of vectors
     0.086950342  0.100401606  0.066666667

  Shift w.r.t. Gamma in fractional coordinates (k-lattice)
     0.000000000  0.000000000  0.000000000

 
 Subroutine IBZKPT returns following result:
 ===========================================
 
 Found      1 irreducible k-points:
 
 Following reciprocal coordinates:
            Coordinates               Weight
  0.000000  0.000000  0.000000      1.000000
 
 Following cartesian coordinates:
            Coordinates               Weight
  0.000000  0.000000  0.000000      1.000000
 


--------------------------------------------------------------------------------------------------------




 Dimension of arrays:
   k-points           NKPTS =      1   k-points in BZ     NKDIM =      1   number of bands    NBANDS=    296
   number of dos      NEDOS =    301   number of ions     NIONS =     36
   non local maximal  LDIM  =      6   non local SUM 2l+1 LMDIM =     18
   total plane-waves  NPLWV =  94080
   max r-space proj   IRMAX =      1   max aug-charges    IRDMAX=   3715
   dimension x,y,z NGX =    42 NGY =   40 NGZ =   56
   dimension x,y,z NGXF=    84 NGYF=   80 NGZF=  112
   support grid    NGXF=    84 NGYF=   80 NGZF=  112
   ions per type =              12  24
   NGX,Y,Z   is equivalent  to a cutoff of   6.07,  6.68,  6.21 a.u.
   NGXF,Y,Z  is equivalent  to a cutoff of  12.14, 13.35, 12.41 a.u.

 SYSTEM =  MoSe2                                   
 POSCAR =  Mo Se                                   

 Startparameter for this run:
   NWRITE =      1    write-flag & timer
   PREC   = normal    normal or accurate (medium, high low for compatibility)
   ISTART =      0    job   : 0-new  1-cont  2-samecut
   ICHARG =      2    charge: 1-file 2-atom 10-const
   ISPIN  =      1    spin polarized calculation?
   LNONCOLLINEAR =      T non collinear calculations
   LSORBIT =      T    spin-orbit coupling
   INIWAV =      1    electr: 0-lowe 1-rand  2-diag
   LASPH  =      F    aspherical Exc in radial PAW
 Electronic Relaxation 1
   ENCUT  =  224.6 eV  16.51 Ry    4.06 a.u.  14.05 12.17 18.33*2*pi/ulx,y,z
   ENINI  =  224.6     initial cutoff
   ENAUG  =  446.8 eV  augmentation charge cutoff
   NELM   =    200;   NELMIN=  4; NELMDL= -5     # of ELM steps 
   EDIFF  = 0.1E-05   stopping-criterion for ELM
   LREAL  =      F    real-space projection
   NLSPLINE    = F    spline interpolate recip. space projectors
   LCOMPAT=      F    compatible to vasp.4.4
   GGA_COMPAT  = T    GGA compatible to vasp.4.4-vasp.4.6
   LMAXPAW     = -100 max onsite density
   LMAXMIX     =    2 max onsite mixed and CHGCAR
   VOSKOWN=      0    Vosko Wilk Nusair interpolation
   ROPT   =    0.00000   0.00000
 Ionic relaxation
   EDIFFG = -.1E-02   stopping-criterion for IOM
   NSW    =      0    number of steps for IOM
   NBLOCK =      1;   KBLOCK =      1    inner block; outer block 
   IBRION =     -1    ionic relax: 0-MD 1-quasi-New 2-CG
   NFREE  =      0    steps in history (QN), initial steepest desc. (CG)
   ISIF   =      2    stress and relaxation
   IWAVPR =     10    prediction:  0-non 1-charg 2-wave 3-comb
   ISYM   =      0    0-nonsym 1-usesym 2-fastsym
   LCORR  =      T    Harris-Foulkes like correction to forces

   POTIM  = 0.5000    time-step for ionic-motion
   TEIN   =    0.0    initial temperature
   TEBEG  =    0.0;   TEEND  =   0.0 temperature during run
   SMASS  =  -3.00    Nose mass-parameter (am)
   estimated Nose-frequenzy (Omega)   =  0.10E-29 period in steps = 0.13E+47 mass=  -0.302E-26a.u.
   SCALEE = 1.0000    scale energy and forces
   NPACO  =    256;   APACO  = 10.0  distance and # of slots for P.C.
   PSTRESS=    0.0 pullay stress

  Mass of Ions in am
   POMASS =  95.94 78.96
  Ionic Valenz
   ZVAL   =   6.00  6.00
  Atomic Wigner-Seitz radii
   RWIGS  =  -1.00 -1.00
  virtual crystal weights 
   VCA    =   1.00  1.00
   NELECT =     216.0000    total number of electrons
   NUPDOWN=      -1.0000    fix difference up-down

 DOS related values:
   EMIN   =  10.00;   EMAX   =-10.00  energy-range for DOS
   EFERMI =   0.00
   ISMEAR =     0;   SIGMA  =   0.10  broadening in eV -4-tet -1-fermi 0-gaus

 Electronic relaxation 2 (details)
   IALGO  =     38    algorithm
   LDIAG  =      T    sub-space diagonalisation (order eigenvalues)
   LSUBROT=      F    optimize rotation matrix (better conditioning)
   TURBO    =      0    0=normal 1=particle mesh
   IRESTART =      0    0=no restart 2=restart with 2 vectors
   NREBOOT  =      0    no. of reboots
   NMIN     =      0    reboot dimension
   EREF     =   0.00    reference energy to select bands
   IMIX   =      4    mixing-type and parameters
     AMIX     =   0.40;   BMIX     =  1.00
     AMIX_MAG =   1.60;   BMIX_MAG =  1.00
     AMIN     =   0.10
     WC   =   100.;   INIMIX=   1;  MIXPRE=   1;  MAXMIX= -45

 Intra band minimization:
   WEIMIN = 0.0000     energy-eigenvalue tresh-hold
   EBREAK =  0.84E-09  absolut break condition
   DEPER  =   0.30     relativ break condition  

   TIME   =   0.40     timestep for ELM

  volume/ion in A,a.u.               =      47.73       322.09
  Fermi-wavevector in a.u.,A,eV,Ry     =   0.820099  1.549763  9.150768  0.672562
  Thomas-Fermi vector in A             =   1.931021
 
 Write flags
   LWAVE        =      T    write WAVECAR
   LDOWNSAMPLE  =      F    k-point downsampling of WAVECAR
   LCHARG       =      T    write CHGCAR
   LVTOT        =      F    write LOCPOT, total local potential
   LVHAR        =      F    write LOCPOT, Hartree potential only
   LELF         =      F    write electronic localiz. function (ELF)
   LORBIT       =     11    0 simple, 1 ext, 2 COOP (PROOUT), +10 PAW based schemes


 Dipole corrections
   LMONO  =      F    monopole corrections only (constant potential shift)
   LDIPOL =      F    correct potential (dipole corrections)
   IDIPOL =      0    1-x, 2-y, 3-z, 4-all directions 
   EPSILON=  1.0000000 bulk dielectric constant

 Exchange correlation treatment:
   GGA     =    --    GGA type
   LEXCH   =     8    internal setting for exchange type
   LIBXC   =     F    Libxc                    
   VOSKOWN =     0    Vosko Wilk Nusair interpolation
   LHFCALC =     F    Hartree Fock is set to
   LHFONE  =     F    Hartree Fock one center treatment
   AEXX    =    0.0000 exact exchange contribution

 Linear response parameters
   LEPSILON=     F    determine dielectric tensor
   LRPA    =     F    only Hartree local field effects (RPA)
   LNABLA  =     F    use nabla operator in PAW spheres
   LVEL    =     F    velocity operator in full k-point grid
   CSHIFT  =0.1000    complex shift for real part using Kramers Kronig
   OMEGAMAX=  -1.0    maximum frequency
   DEG_THRESHOLD= 0.2000000E-02 threshold for treating states as degnerate
   RTIME   =   -0.100 relaxation time in fs
  (WPLASMAI=    0.000 imaginary part of plasma frequency in eV, 0.658/RTIME)
   DFIELD  = 0.0000000 0.0000000 0.0000000 field for delta impulse in time
 
  Optional k-point grid parameters
   LKPOINTS_OPT  =     F    use optional k-point grid
   KPOINTS_OPT_MODE=     1    mode for optional k-point grid
 
 Orbital magnetization related:
   ORBITALMAG=     F  switch on orbital magnetization
   LCHIMAG   =     F  perturbation theory with respect to B field
   DQ        =  0.001000  dq finite difference perturbation B field
   LLRAUG    =     F  two centre corrections for induced B field



--------------------------------------------------------------------------------------------------------


 Static calculation
 charge density and potential will be updated during run
 non collinear spin polarized calculation
 Variant of blocked Davidson
 Davidson routine will perform the subspace rotation
 perform sub-space diagonalisation
    after iterative eigenvector-optimisation
 modified Broyden-mixing scheme, WC =      100.0
 initial mixing is a Kerker type mixing with AMIX =  0.4000 and BMIX =      1.0000
 Hartree-type preconditioning will be used
 using additional bands          188
 reciprocal scheme for non local part
 use partial core corrections
 calculate Harris-corrections to forces 
   (improved forces if not selfconsistent)
 use gradient corrections 
 use of overlap-Matrix (Vanderbilt PP)
 Gauss-broadening in eV      SIGMA  =   0.10


--------------------------------------------------------------------------------------------------------


  energy-cutoff  :      224.58
  volume of cell :     1718.22
      direct lattice vectors                 reciprocal lattice vectors
     9.960000000  5.750408681  0.000000000     0.075301205  0.043475171  0.000000000
    -4.980000000  8.625613022  0.000000000    -0.050200803  0.086950342  0.000000000
     0.000000000  0.000000000 15.000000000     0.000000000  0.000000000  0.066666667

  length of vectors
    11.500817362  9.960000000 15.000000000     0.086950342  0.100401606  0.066666667


 
 k-points in units of 2pi/SCALE and weight: Automatic mesh                          
   0.00000000  0.00000000  0.00000000       1.000
 
 k-points in reciprocal lattice and weights: Automatic mesh                          
   0.00000000  0.00000000  0.00000000       1.000
 
 position of ions in fractional coordinates (direct lattice) 
   0.91450107  0.83333156  0.50045437
   0.66449291  0.66666839  0.50045435
   0.91450106  0.16666843  0.50045437
   0.91450467  0.49999998  0.50045487
   0.16449293  0.66666842  0.50045435
   0.16449292  0.33333153  0.50045434
   0.16449657  0.00000002  0.50045486
   0.66449288  0.33333157  0.50045435
   0.66449657  0.00000002  0.50045486
   0.41450104  0.16666848  0.50045437
   0.41450468  0.49999996  0.50045487
   0.41450106  0.83333154  0.50045437
   0.74723992  0.50000002  0.61162802
   0.74722619  0.83334121  0.38928152
   0.74723031  0.83333967  0.61162885
   0.49720529  0.66666047  0.61163143
   0.49720109  0.66665893  0.38927897
   0.74723032  0.16666031  0.61162886
   0.74722619  0.16665877  0.38928152
   0.74723529  0.50000001  0.38928482
   0.24722620  0.83334123  0.38928152
   0.24723032  0.83333969  0.61162886
   0.49721027  0.00000000  0.38928226
   0.49721497  0.00000000  0.61163061
   0.49720528  0.33333956  0.61163143
   0.49720108  0.33334110  0.38927898
   0.24723530  0.50000001  0.38928481
   0.24723992  0.50000002  0.61162801
   0.99720527  0.66666048  0.61163143
   0.24722620  0.16665875  0.38928153
   0.24723032  0.16666029  0.61162885
   0.99720108  0.66665894  0.38927897
   0.99720108  0.33334109  0.38927897
   0.99720528  0.33333955  0.61163143
   0.99721497  1.00000000  0.61163060
   0.99721027  0.99999999  0.38928227
 
 position of ions in cartesian coordinates  (Angst):
   4.95843947 12.44675042  7.50681549
   3.29834084  9.57152938  7.50681518
   8.27842176  6.69637226  7.50681549
   6.61846658  9.57158192  7.50682308
  -1.68165917  6.69632540  7.50681518
  -0.02164150  3.82109036  7.50681517
   1.63838573  0.94592271  7.50682285
   4.95835789  6.69629477  7.50681521
   6.61838578  3.82112704  7.50682283
   3.29842129  3.82116820  7.50681551
   1.63846688  6.69637747  7.50682311
  -0.02156053  9.57154582  7.50681548
   4.95250952  8.60974157  9.17442025
   3.29233357 11.48493476  5.83922279
   3.29238231 11.48494521  9.17443279
   1.63219554  8.60948881  9.17447143
   1.63216139  8.60945136  5.83918455
   6.61244567  5.73442707  9.17443283
   6.61241221  5.73439007  5.83922280
   4.95246346  8.60971493  5.83927223
  -1.68766637  8.60973061  5.83922277
  -1.68761766  8.60974110  9.17443288
   4.95221425  2.85916228  5.83923394
   4.95226107  2.85918929  9.17445913
   3.29213356  5.73439156  9.17447142
   3.29208412  5.73438073  5.83918463
  -0.02753646  5.73451064  5.83927222
  -0.02749049  5.73453721  9.17442020
   6.61219535 11.48469313  9.17447146
   1.63241239  2.85918563  5.83922296
   1.63244575  2.85922260  9.17443272
   6.61216124 11.48465575  5.83918449
   8.27208416  8.60958501  5.83918450
   8.27213360  8.60959588  9.17447141
   4.95226110 14.36000659  9.17445905
   4.95221429 14.35997955  5.83923404
 
 Euler angles ALPHA=     0.0000000  BETA=     0.0000000

 transformation matrix from SAXIS to cartesian coordinates
 ---------------------------------------------------------
     1.0000000 m_x     0.0000000 m_y     0.0000000 m_z
     0.0000000 m_x     1.0000000 m_y     0.0000000 m_z
     0.0000000 m_x     0.0000000 m_y     1.0000000 m_z

 transformation matrix from cartesian coordinates to SAXIS
 ---------------------------------------------------------
     1.0000000 m_x     0.0000000 m_y     0.0000000 m_z
     0.0000000 m_x     1.0000000 m_y     0.0000000 m_z
     0.0000000 m_x     0.0000000 m_y     1.0000000 m_z




--------------------------------------------------------------------------------------------------------


 k-point   1 :   0.0000 0.0000 0.0000  plane waves:   26234

 maximum and minimum number of plane-waves per node :      4378     4360

 maximum number of plane-waves:     26234
 maximum index in each direction: 
   IXMAX=   14   IYMAX=   12   IZMAX=   18
   IXMIN=  -14   IYMIN=  -12   IZMIN=  -18


 parallel 3D FFT for wavefunctions:
    minimum data exchange during FFTs selected (reduces bandwidth)
 parallel 3D FFT for charge:
    minimum data exchange during FFTs selected (reduces bandwidth)


 total amount of memory used by VASP MPI-rank0    42986. kBytes
=======================================================================

   base      :      30000. kBytes
   nonl-proj :       1893. kBytes
   fftplans  :       1714. kBytes
   grid      :       6307. kBytes
   one-center:        373. kBytes
   wavefun   :       2699. kBytes
 
     INWAV:  cpu time      0.0000: real time      0.0000
 Broyden mixing: mesh for mixing (old mesh)
   NGX = 29   NGY = 25   NGZ = 37
  (NGX  = 84   NGY  = 80   NGZ  =112)
  gives a total of  26825 points

 initial charge density was supplied:
 charge density of overlapping atoms calculated
 number of electron     216.0000000 magnetization      36.0000000     36.0000000     36.0000000
 keeping initial charge density in first step


--------------------------------------------------------------------------------------------------------


 Maximum index for augmentation-charges          224 (set IRDMAX)


--------------------------------------------------------------------------------------------------------


 First call to EWALD:  gamma=   0.148
 Maximum number of real-space cells 3x 3x 2
 Maximum number of reciprocal cells 3x 2x 3

    FEWALD:  cpu time      0.0021: real time      0.0022


--------------------------------------- Iteration      1(   1)  ---------------------------------------


    POTLOK:  cpu time      0.0527: real time      0.0549
    SETDIJ:  cpu time      0.0109: real time      0.0111
     EDDAV:  cpu time      0.6736: real time      0.7045
       DOS:  cpu time      0.0009: real time      0.0009
    --------------------------------------------
      LOOP:  cpu time      0.7382: real time      0.7714

 eigenvalue-minimisations  :   624
 total energy-change (2. order) : 0.1061390E+04  (-0.5099619E+04)
 number of electron     216.0000000 magnetization      36.0000000     36.0000000     36.0000000
 augmentation part      216.0000000 magnetization      36.0000000     36.0000000     36.0000000

 Free energy of the ion-electron system (eV)
  ---------------------------------------------------
  alpha Z        PSCENC =       347.93246547
  Ewald energy   TEWEN  =     11197.26003077
  -Hartree energ DENC   =    -19566.64392916
  -exchange      EXHF   =         0.00000000
  -V(xc)+E(xc)   XCENC  =      -735.35860744
  PAW double counting   =      8225.90277104    -7040.55674554
  entropy T*S    EENTRO =        -0.08777461
  eigenvalues    EBANDS =      -147.70631217
  atomic energy  EATOM  =      8780.64790683
  Solvation  Ediel_sol  =         0.00000000
  ---------------------------------------------------
  free energy    TOTEN  =      1061.38980520 eV

  energy without entropy =     1061.47757981  energy(sigma->0) =     1061.43369250


--------------------------------------------------------------------------------------------------------




--------------------------------------- Iteration      1(   2)  ---------------------------------------


     EDDAV:  cpu time      0.7884: real time      0.7944
       DOS:  cpu time      0.0009: real time      0.0009
    --------------------------------------------
      LOOP:  cpu time      0.7893: real time      0.7954

 eigenvalue-minimisations  :   816
 total energy-change (2. order) :-0.1156217E+04  (-0.1112745E+04)
 number of electron     216.0000000 magnetization      36.0000000     36.0000000     36.0000000
 augmentation part      216.0000000 magnetization      36.0000000     36.0000000     36.0000000

 Free energy of the ion-electron system (eV)
  ---------------------------------------------------
  alpha Z        PSCENC =       347.93246547
  Ewald energy   TEWEN  =     11197.26003077
  -Hartree energ DENC   =    -19566.64392916
  -exchange      EXHF   =         0.00000000
  -V(xc)+E(xc)   XCENC  =      -735.35860744
  PAW double counting   =      8225.90277104    -7040.55674554
  entropy T*S    EENTRO =        -0.00945997
  eigenvalues    EBANDS =     -1304.00154871
  atomic energy  EATOM  =      8780.64790683
  Solvation  Ediel_sol  =         0.00000000
  ---------------------------------------------------
  free energy    TOTEN  =       -94.82711670 eV

  energy without entropy =      -94.81765673  energy(sigma->0) =      -94.82238672


--------------------------------------------------------------------------------------------------------




--------------------------------------- Iteration      1(   3)  ---------------------------------------


     EDDAV:  cpu time      0.7109: real time      0.7284
       DOS:  cpu time      0.0005: real time      0.0005
    --------------------------------------------
      LOOP:  cpu time      0.7114: real time      0.7289

 eigenvalue-minimisations  :   704
 total energy-change (2. order) :-0.1322969E+03  (-0.1294275E+03)
 number of electron     216.0000000 magnetization      36.0000000     36.0000000     36.0000000
 augmentation part      216.0000000 magnetization      36.0000000     36.0000000     36.0000000

 Free energy of the ion-electron system (eV)
  ---------------------------------------------------
  alpha Z        PSCENC =       347.93246547
  Ewald energy   TEWEN  =     11197.26003077
  -Hartree energ DENC   =    -19566.64392916
  -exchange      EXHF   =         0.00000000
  -V(xc)+E(xc)   XCENC  =      -735.35860744
  PAW double counting   =      8225.90277104    -7040.55674554
  entropy T*S    EENTRO =        -0.00095629
  eigenvalues    EBANDS =     -1436.30697481
  atomic energy  EATOM  =      8780.64790683
  Solvation  Ediel_sol  =         0.00000000
  ---------------------------------------------------
  free energy    TOTEN  =      -227.12403912 eV

  energy without entropy =     -227.12308283  energy(sigma->0) =     -227.12356098


--------------------------------------------------------------------------------------------------------




--------------------------------------- Iteration      1(   4)  ---------------------------------------


     EDDAV:  cpu time      0.7923: real time      0.7983
       DOS:  cpu time      0.0006: real time      0.0006
    --------------------------------------------
      LOOP:  cpu time      0.7929: real time      0.7989

 eigenvalue-minimisations  :   800
 total energy-change (2. order) :-0.4479888E+01  (-0.4420985E+01)
 number of electron     216.0000000 magnetization      36.0000000     36.0000000     36.0000000
 augmentation part      216.0000000 magnetization      36.0000000     36.0000000     36.0000000

 Free energy of the ion-electron system (eV)
  ---------------------------------------------------
  alpha Z        PSCENC =       347.93246547
  Ewald energy   TEWEN  =     11197.26003077
  -Hartree energ DENC   =    -19566.64392916
  -exchange      EXHF   =         0.00000000
  -V(xc)+E(xc)   XCENC  =      -735.35860744
  PAW double counting   =      8225.90277104    -7040.55674554
  entropy T*S    EENTRO =        -0.00146936
  eigenvalues    EBANDS =     -1440.78634970
  atomic energy  EATOM  =      8780.64790683
  Solvation  Ediel_sol  =         0.00000000
  ---------------------------------------------------
  free energy    TOTEN  =      -231.60392708 eV

  energy without entropy =     -231.60245772  energy(sigma->0) =     -231.60319240


--------------------------------------------------------------------------------------------------------




--------------------------------------- Iteration      1(   5)  ---------------------------------------


     EDDAV:  cpu time      0.8190: real time      0.8249
       DOS:  cpu time      0.0006: real time      0.0006



 total charge

# of ion       s       p       d       tot
------------------------------------------
    1        0.378   0.521   3.749   4.648
    2        0.378   0.521   3.749   4.648
    3        0.378   0.521   3.750   4.649
    4        0.378   0.521   3.750   4.649
    5        0.378   0.521   3.749   4.648
    6        0.378   0.521   3.749   4.647
    7        0.378   0.521   3.750   4.648
    8        0.378   0.521   3.749   4.647
    9        0.378   0.521   3.750   4.648
   10        0.378   0.521   3.750   4.649
   11        0.378   0.521   3.750   4.648
   12        0.378   0.521   3.749   4.648
   13        1.495   2.549   0.068   4.112
   14        1.495   2.549   0.068   4.112
   15        1.495   2.549   0.068   4.112
   16        1.495   2.549   0.068   4.112
   17        1.495   2.549   0.068   4.112
   18        1.495   2.549   0.068   4.112
   19        1.495   2.549   0.068   4.112
   20        1.495   2.549   0.068   4.112
   21        1.495   2.549   0.068   4.112
   22        1.495   2.549   0.068   4.112
   23        1.495   2.549   0.068   4.112
   24        1.495   2.549   0.068   4.112
   25        1.495   2.549   0.068   4.112
   26        1.495   2.549   0.068   4.112
   27        1.495   2.549   0.068   4.112
   28        1.495   2.549   0.068   4.112
   29        1.495   2.549   0.068   4.112
   30        1.495   2.549   0.068   4.112
   31        1.495   2.549   0.068   4.112
   32        1.495   2.549   0.068   4.112
   33        1.495   2.549   0.068   4.112
   34        1.495   2.549   0.068   4.112
   35        1.495   2.549   0.068   4.112
   36        1.495   2.549   0.068   4.112
--------------------------------------------------
tot         40.422  67.425  46.623 154.470



 magnetization (x)

# of ion       s       p       d       tot
------------------------------------------
    1       -0.001  -0.000  -0.047  -0.048
    2       -0.001  -0.000  -0.048  -0.049
    3       -0.001  -0.000  -0.048  -0.049
    4       -0.001  -0.000  -0.047  -0.048
    5       -0.001  -0.000  -0.047  -0.049
    6       -0.001  -0.000  -0.047  -0.048
    7       -0.001  -0.000  -0.047  -0.048
    8       -0.001  -0.000  -0.047  -0.048
    9       -0.001  -0.000  -0.048  -0.049
   10       -0.001  -0.000  -0.048  -0.049
   11       -0.001  -0.000  -0.047  -0.048
   12       -0.001  -0.000  -0.047  -0.048
   13        0.008   0.032   0.000   0.040
   14        0.008   0.031   0.000   0.040
   15        0.008   0.032   0.000   0.041
   16        0.009   0.031   0.000   0.040
   17        0.008   0.032   0.000   0.040
   18        0.008   0.032   0.000   0.041
   19        0.009   0.031   0.000   0.040
   20        0.008   0.031   0.000   0.040
   21        0.008   0.032   0.000   0.041
   22        0.008   0.032   0.000   0.040
   23        0.008   0.032   0.000   0.040
   24        0.008   0.031   0.000   0.040
   25        0.008   0.032   0.000   0.040
   26        0.008   0.031   0.000   0.040
   27        0.008   0.031   0.000   0.040
   28        0.008   0.031   0.000   0.040
   29        0.008   0.032   0.000   0.041
   30        0.008   0.032   0.000   0.041
   31        0.009   0.032   0.000   0.040
   32        0.008   0.032   0.000   0.041
   33        0.008   0.031   0.000   0.040
   34        0.008   0.032   0.000   0.040
   35        0.008   0.031   0.000   0.040
   36        0.008   0.031   0.000   0.040
--------------------------------------------------
tot          0.192   0.751  -0.558   0.385



 magnetization (y)

# of ion       s       p       d       tot
------------------------------------------
    1       -0.001  -0.000  -0.047  -0.048
    2       -0.001  -0.000  -0.047  -0.048
    3       -0.001  -0.000  -0.047  -0.049
    4       -0.001  -0.000  -0.048  -0.049
    5       -0.001  -0.000  -0.048  -0.049
    6       -0.001  -0.000  -0.047  -0.048
    7       -0.001  -0.000  -0.048  -0.049
    8       -0.001  -0.000  -0.047  -0.048
    9       -0.001  -0.000  -0.048  -0.049
   10       -0.001  -0.000  -0.047  -0.049
   11       -0.001  -0.000  -0.048  -0.049
   12       -0.001  -0.000  -0.047  -0.048
   13        0.008   0.031   0.000   0.040
   14        0.009   0.032   0.000   0.041
   15        0.008   0.031   0.000   0.040
   16        0.008   0.031   0.000   0.040
   17        0.008   0.032   0.000   0.041
   18        0.008   0.031   0.000   0.040
   19        0.008   0.032   0.000   0.041
   20        0.008   0.031   0.000   0.040
   21        0.008   0.031   0.000   0.040
   22        0.008   0.032   0.000   0.041
   23        0.008   0.031   0.000   0.040
   24        0.008   0.031   0.000   0.040
   25        0.008   0.032   0.000   0.041
   26        0.008   0.032   0.000   0.041
   27        0.008   0.031   0.000   0.040
   28        0.008   0.031   0.000   0.040
   29        0.009   0.032   0.000   0.041
   30        0.008   0.032   0.000   0.040
   31        0.008   0.031   0.000   0.040
   32        0.008   0.032   0.000   0.041
   33        0.008   0.032   0.000   0.041
   34        0.008   0.032   0.000   0.040
   35        0.008   0.031   0.000   0.040
   36        0.008   0.031   0.000   0.040
--------------------------------------------------
tot          0.192   0.751  -0.558   0.385



 magnetization (z)

# of ion       s       p       d       tot
------------------------------------------
    1       -0.001  -0.000  -0.047  -0.049
    2       -0.001  -0.000  -0.048  -0.049
    3       -0.001  -0.000  -0.048  -0.049
    4       -0.001  -0.000  -0.047  -0.049
    5       -0.001  -0.000  -0.048  -0.049
    6       -0.001  -0.000  -0.048  -0.049
    7       -0.001  -0.000  -0.047  -0.049
    8       -0.001  -0.000  -0.048  -0.049
    9       -0.001  -0.000  -0.047  -0.049
   10       -0.001  -0.000  -0.048  -0.049
   11       -0.001  -0.000  -0.047  -0.048
   12       -0.001  -0.000  -0.048  -0.049
   13        0.008   0.031   0.000   0.040
   14        0.009   0.032   0.000   0.041
   15        0.009   0.031   0.000   0.040
   16        0.009   0.032   0.000   0.041
   17        0.008   0.032   0.000   0.040
   18        0.008   0.031   0.000   0.040
   19        0.009   0.031   0.000   0.040
   20        0.008   0.031   0.000   0.040
   21        0.008   0.031   0.000   0.040
   22        0.008   0.032   0.000   0.041
   23        0.008   0.031   0.000   0.040
   24        0.008   0.031   0.000   0.040
   25        0.008   0.031   0.000   0.040
   26        0.008   0.031   0.000   0.040
   27        0.008   0.031   0.000   0.040
   28        0.008   0.031   0.000   0.040
   29        0.009   0.032   0.000   0.041
   30        0.008   0.031   0.000   0.040
   31        0.008   0.032   0.000   0.041
   32        0.008   0.032   0.000   0.040
   33        0.008   0.032   0.000   0.040
   34        0.008   0.032   0.000   0.040
   35        0.008   0.031   0.000   0.040
   36        0.008   0.032   0.000   0.040
--------------------------------------------------
tot          0.192   0.750  -0.560   0.382
 
    CHARGE:  cpu time      0.0265: real time      0.0267
    MIXING:  cpu time      0.0025: real time      0.0026
    --------------------------------------------
      LOOP:  cpu time      0.8485: real time      0.8547

 eigenvalue-minimisations  :   856
 total energy-change (2. order) :-0.1447174E+00  (-0.1439318E+00)
 number of electron     216.0000419 magnetization      27.4084837     27.4084035     27.4076725
 augmentation part      -17.5963905 magnetization      27.1413995     27.1415300     27.1434567

 Broyden mixing:
  rms(total) = 0.73230E+01    rms(broyden)= 0.73227E+01
  rms(prec ) = 0.74622E+01
  weight for this iteration     100.00

 Free energy of the ion-electron system (eV)
  ---------------------------------------------------
  alpha Z        PSCENC =       347.93246547
  Ewald energy   TEWEN  =     11197.26003077
  -Hartree energ DENC   =    -19566.64392916
  -exchange      EXHF   =         0.00000000
  -V(xc)+E(xc)   XCENC  =      -735.35860744
  PAW double counting   =      8225.90277104    -7040.55674554
  entropy T*S    EENTRO =        -0.00155743
  eigenvalues    EBANDS =     -1440.93097906
  atomic energy  EATOM  =      8780.64790683
  Solvation  Ediel_sol  =         0.00000000
  ---------------------------------------------------
  free energy    TOTEN  =      -231.74864450 eV

  energy without entropy =     -231.74708707  energy(sigma->0) =     -231.74786579


--------------------------------------------------------------------------------------------------------




--------------------------------------- Iteration      1(   6)  ---------------------------------------


    POTLOK:  cpu time      0.0395: real time      0.0399
    SETDIJ:  cpu time      0.0104: real time      0.0105
     EDDAV:  cpu time      0.6278: real time      0.6328
       DOS:  cpu time      0.0006: real time      0.0006
    CHARGE:  cpu time      0.0255: real time      0.0257
    MIXING:  cpu time      0.0027: real time      0.0032
    --------------------------------------------
      LOOP:  cpu time      0.7065: real time      0.7126

 eigenvalue-minimisations  :   608
 total energy-change (2. order) : 0.6883509E+02  (-0.2442315E+02)
 number of electron     216.0000372 magnetization      20.0470286     20.0470974     20.0468456
 augmentation part      -11.4619628 magnetization      19.7380238     19.7377271     19.7362907

 Broyden mixing:
  rms(total) = 0.29860E+01    rms(broyden)= 0.29858E+01
  rms(prec ) = 0.32494E+01
  weight for this iteration     100.00

 eigenvalues of (default mixing * dielectric matrix)
  average eigenvalue GAMMA=   1.1390
  1.1390

 Free energy of the ion-electron system (eV)
  ---------------------------------------------------
  alpha Z        PSCENC =       347.93246547
  Ewald energy   TEWEN  =     11197.26003077
  -Hartree energ DENC   =    -19540.33388202
  -exchange      EXHF   =         0.00000000
  -V(xc)+E(xc)   XCENC  =      -683.92329631
  PAW double counting   =     10544.50227208    -9368.65929027
  entropy T*S    EENTRO =        -0.03967447
  eigenvalues    EBANDS =     -1440.30009129
  atomic energy  EATOM  =      8780.64790683
  Solvation  Ediel_sol  =         0.00000000
  ---------------------------------------------------
  free energy    TOTEN  =      -162.91355920 eV

  energy without entropy =     -162.87388474  energy(sigma->0) =     -162.89372197


--------------------------------------------------------------------------------------------------------




--------------------------------------- Iteration      1(   7)  ---------------------------------------


    POTLOK:  cpu time      0.0368: real time      0.0372
    SETDIJ:  cpu time      0.0102: real time      0.0103
     EDDAV:  cpu time      0.7506: real time      0.7564
       DOS:  cpu time      0.0006: real time      0.0006
    CHARGE:  cpu time      0.0244: real time      0.0246
    MIXING:  cpu time      0.0024: real time      0.0024
    --------------------------------------------
      LOOP:  cpu time      0.8250: real time      0.8314

 eigenvalue-minimisations  :   728
 total energy-change (2. order) :-0.1647418E+02  (-0.3998275E+01)
 number of electron     216.0000412 magnetization      12.2908095     12.2907050     12.2909885
 augmentation part      -15.7159820 magnetization      12.2217538     12.2239448     12.2235535

 Broyden mixing:
  rms(total) = 0.24274E+01    rms(broyden)= 0.24274E+01
  rms(prec ) = 0.25546E+01
  weight for this iteration     100.00

 eigenvalues of (default mixing * dielectric matrix)
  average eigenvalue GAMMA=   1.1735
  1.7191  0.6279

 Free energy of the ion-electron system (eV)
  ---------------------------------------------------
  alpha Z        PSCENC =       347.93246547
  Ewald energy   TEWEN  =     11197.26003077
  -Hartree energ DENC   =    -19677.06069874
  -exchange      EXHF   =         0.00000000
  -V(xc)+E(xc)   XCENC  =      -699.01697030
  PAW double counting   =     12292.93665978   -11121.97176361
  entropy T*S    EENTRO =        -0.00000728
  eigenvalues    EBANDS =     -1300.11536149
  atomic energy  EATOM  =      8780.64790683
  Solvation  Ediel_sol  =         0.00000000
  ---------------------------------------------------
  free energy    TOTEN  =      -179.38773857 eV

  energy without entropy =     -179.38773128  energy(sigma->0) =     -179.38773492


--------------------------------------------------------------------------------------------------------




--------------------------------------- Iteration      1(   8)  ---------------------------------------


    POTLOK:  cpu time      0.0373: real time      0.0377
    SETDIJ:  cpu time      0.0104: real time      0.0105
     EDDAV:  cpu time      0.7145: real time      0.7200
       DOS:  cpu time      0.0003: real time      0.0003
    CHARGE:  cpu time      0.0234: real time      0.0235
    MIXING:  cpu time      0.0023: real time      0.0023
    --------------------------------------------
      LOOP:  cpu time      0.7882: real time      0.7943

 eigenvalue-minimisations  :   720
 total energy-change (2. order) :-0.1031616E+02  (-0.8430581E+00)
 number of electron     216.0000392 magnetization       7.1136791      7.1134630      7.1143799
 augmentation part      -14.0428364 magnetization       6.9544755      6.9549574      6.9535145

 Broyden mixing:
  rms(total) = 0.88311E+00    rms(broyden)= 0.88310E+00
  rms(prec ) = 0.90239E+00
  weight for this iteration     100.00

 eigenvalues of (default mixing * dielectric matrix)
  average eigenvalue GAMMA=   1.2763
  2.2426  0.9568  0.6295

 Free energy of the ion-electron system (eV)
  ---------------------------------------------------
  alpha Z        PSCENC =       347.93246547
  Ewald energy   TEWEN  =     11197.26003077
  -Hartree energ DENC   =    -19715.56763489
  -exchange      EXHF   =         0.00000000
  -V(xc)+E(xc)   XCENC  =      -702.42493557
  PAW double counting   =     14130.80632041   -12964.47093233
  entropy T*S    EENTRO =        -0.00000000
  eigenvalues    EBANDS =     -1263.88711752
  atomic energy  EATOM  =      8780.64790683
  Solvation  Ediel_sol  =         0.00000000
  ---------------------------------------------------
  free energy    TOTEN  =      -189.70389684 eV

  energy without entropy =     -189.70389684  energy(sigma->0) =     -189.70389684


--------------------------------------------------------------------------------------------------------




--------------------------------------- Iteration      1(   9)  ---------------------------------------


    POTLOK:  cpu time      0.0359: real time      0.0364
    SETDIJ:  cpu time      0.0103: real time      0.0104
     EDDAV:  cpu time      0.6684: real time      0.6734
       DOS:  cpu time      0.0003: real time      0.0003
    CHARGE:  cpu time      0.0231: real time      0.0233
    MIXING:  cpu time      0.0025: real time      0.0332
    --------------------------------------------
      LOOP:  cpu time      0.7405: real time      0.7770

 eigenvalue-minimisations  :   664
 total energy-change (2. order) :-0.2252669E+02  (-0.1446309E+01)
 number of electron     216.0000384 magnetization       4.9184893      4.9182535      4.9191993
 augmentation part      -13.1594941 magnetization       4.7494995      4.7497495      4.7482280

 Broyden mixing:
  rms(total) = 0.62599E+00    rms(broyden)= 0.62594E+00
  rms(prec ) = 0.64374E+00
  weight for this iteration     100.00

 eigenvalues of (default mixing * dielectric matrix)
  average eigenvalue GAMMA=   1.1959
  2.2974  1.1920  0.6470  0.6470

 Free energy of the ion-electron system (eV)
  ---------------------------------------------------
  alpha Z        PSCENC =       347.93246547
  Ewald energy   TEWEN  =     11197.26003077
  -Hartree energ DENC   =    -19747.34004719
  -exchange      EXHF   =         0.00000000
  -V(xc)+E(xc)   XCENC  =      -714.73543408
  PAW double counting   =     14674.04117891   -13508.97510870
  entropy T*S    EENTRO =        -0.00000000
  eigenvalues    EBANDS =     -1241.06157977
  atomic energy  EATOM  =      8780.64790683
  Solvation  Ediel_sol  =         0.00000000
  ---------------------------------------------------
  free energy    TOTEN  =      -212.23058775 eV

  energy without entropy =     -212.23058775  energy(sigma->0) =     -212.23058775


--------------------------------------------------------------------------------------------------------




--------------------------------------- Iteration      1(  10)  ---------------------------------------


    POTLOK:  cpu time      0.0364: real time      0.0369
    SETDIJ:  cpu time      0.0103: real time      0.0104
     EDDAV:  cpu time      0.6718: real time      0.6768
       DOS:  cpu time      0.0003: real time      0.0003



 total charge

# of ion       s       p       d       tot
------------------------------------------
    1        0.383   0.518   4.497   5.398
    2        0.380   0.514   4.378   5.272
    3        0.382   0.517   4.468   5.367
    4        0.382   0.516   4.447   5.346
    5        0.381   0.515   4.408   5.304
    6        0.380   0.513   4.358   5.251
    7        0.379   0.512   4.325   5.216
    8        0.380   0.514   4.394   5.289
    9        0.379   0.511   4.313   5.204
   10        0.381   0.516   4.446   5.344
   11        0.381   0.514   4.399   5.295
   12        0.383   0.519   4.515   5.416
   13        1.479   2.347   0.057   3.883
   14        1.479   2.348   0.057   3.884
   15        1.479   2.348   0.057   3.884
   16        1.479   2.344   0.057   3.881
   17        1.479   2.344   0.057   3.881
   18        1.479   2.349   0.057   3.885
   19        1.479   2.349   0.057   3.885
   20        1.479   2.347   0.057   3.883
   21        1.479   2.346   0.057   3.882
   22        1.479   2.346   0.057   3.882
   23        1.479   2.346   0.057   3.882
   24        1.479   2.346   0.057   3.882
   25        1.479   2.347   0.057   3.883
   26        1.479   2.346   0.057   3.883
   27        1.479   2.350   0.057   3.886
   28        1.479   2.349   0.057   3.886
   29        1.479   2.341   0.057   3.878
   30        1.479   2.351   0.057   3.887
   31        1.479   2.351   0.057   3.887
   32        1.479   2.341   0.057   3.878
   33        1.479   2.345   0.057   3.882
   34        1.479   2.345   0.057   3.881
   35        1.479   2.344   0.057   3.881
   36        1.479   2.344   0.057   3.880
--------------------------------------------------
tot         40.076  62.493  54.316 156.886



 magnetization (x)

# of ion       s       p       d       tot
------------------------------------------
    1       -0.003  -0.002  -0.061  -0.066
    2       -0.003  -0.002  -0.062  -0.067
    3       -0.003  -0.002  -0.061  -0.066
    4       -0.003  -0.002  -0.061  -0.066
    5       -0.003  -0.002  -0.062  -0.067
    6       -0.003  -0.002  -0.062  -0.067
    7       -0.003  -0.002  -0.062  -0.067
    8       -0.003  -0.002  -0.062  -0.067
    9       -0.003  -0.002  -0.062  -0.067
   10       -0.003  -0.002  -0.062  -0.067
   11       -0.003  -0.002  -0.061  -0.066
   12       -0.003  -0.002  -0.062  -0.067
   13       -0.007  -0.003  -0.000  -0.010
   14       -0.006  -0.004  -0.000  -0.010
   15       -0.007  -0.004  -0.000  -0.010
   16       -0.007  -0.004  -0.000  -0.010
   17       -0.007  -0.004  -0.000  -0.010
   18       -0.007  -0.004  -0.000  -0.010
   19       -0.007  -0.004  -0.000  -0.011
   20       -0.007  -0.003  -0.000  -0.010
   21       -0.007  -0.004  -0.000  -0.010
   22       -0.007  -0.004  -0.000  -0.010
   23       -0.007  -0.004  -0.000  -0.010
   24       -0.007  -0.003  -0.000  -0.010
   25       -0.007  -0.004  -0.000  -0.010
   26       -0.007  -0.003  -0.000  -0.010
   27       -0.007  -0.004  -0.000  -0.010
   28       -0.007  -0.004  -0.000  -0.010
   29       -0.007  -0.003  -0.000  -0.010
   30       -0.007  -0.003  -0.000  -0.010
   31       -0.007  -0.004  -0.000  -0.010
   32       -0.007  -0.004  -0.000  -0.010
   33       -0.007  -0.004  -0.000  -0.011
   34       -0.007  -0.004  -0.000  -0.011
   35       -0.007  -0.004  -0.000  -0.011
   36       -0.007  -0.004  -0.000  -0.011
--------------------------------------------------
tot         -0.190  -0.113  -0.746  -1.050



 magnetization (y)

# of ion       s       p       d       tot
------------------------------------------
    1       -0.003  -0.002  -0.061  -0.066
    2       -0.003  -0.002  -0.062  -0.067
    3       -0.003  -0.002  -0.061  -0.066
    4       -0.003  -0.002  -0.061  -0.066
    5       -0.003  -0.002  -0.062  -0.067
    6       -0.003  -0.002  -0.062  -0.067
    7       -0.003  -0.002  -0.062  -0.067
    8       -0.003  -0.002  -0.062  -0.067
    9       -0.003  -0.002  -0.062  -0.067
   10       -0.003  -0.002  -0.062  -0.067
   11       -0.003  -0.002  -0.061  -0.067
   12       -0.003  -0.002  -0.062  -0.067
   13       -0.007  -0.003  -0.000  -0.010
   14       -0.007  -0.004  -0.000  -0.010
   15       -0.007  -0.004  -0.000  -0.010
   16       -0.007  -0.004  -0.000  -0.011
   17       -0.007  -0.004  -0.000  -0.010
   18       -0.007  -0.004  -0.000  -0.010
   19       -0.007  -0.004  -0.000  -0.010
   20       -0.007  -0.003  -0.000  -0.010
   21       -0.007  -0.003  -0.000  -0.010
   22       -0.007  -0.003  -0.000  -0.010
   23       -0.007  -0.004  -0.000  -0.010
   24       -0.007  -0.003  -0.000  -0.010
   25       -0.007  -0.004  -0.000  -0.010
   26       -0.007  -0.004  -0.000  -0.010
   27       -0.006  -0.003  -0.000  -0.010
   28       -0.007  -0.004  -0.000  -0.010
   29       -0.007  -0.004  -0.000  -0.011
   30       -0.007  -0.004  -0.000  -0.010
   31       -0.007  -0.004  -0.000  -0.010
   32       -0.007  -0.004  -0.000  -0.010
   33       -0.007  -0.004  -0.000  -0.010
   34       -0.007  -0.004  -0.000  -0.010
   35       -0.007  -0.004  -0.000  -0.010
   36       -0.007  -0.004  -0.000  -0.011
--------------------------------------------------
tot         -0.190  -0.113  -0.747  -1.050



 magnetization (z)

# of ion       s       p       d       tot
------------------------------------------
    1       -0.003  -0.002  -0.061  -0.066
    2       -0.003  -0.002  -0.062  -0.067
    3       -0.003  -0.002  -0.061  -0.066
    4       -0.003  -0.002  -0.061  -0.066
    5       -0.003  -0.002  -0.063  -0.068
    6       -0.003  -0.002  -0.062  -0.067
    7       -0.003  -0.002  -0.062  -0.067
    8       -0.003  -0.002  -0.062  -0.067
    9       -0.003  -0.002  -0.061  -0.066
   10       -0.003  -0.002  -0.062  -0.067
   11       -0.003  -0.002  -0.062  -0.067
   12       -0.003  -0.002  -0.062  -0.067
   13       -0.007  -0.004  -0.000  -0.010
   14       -0.007  -0.004  -0.000  -0.010
   15       -0.006  -0.004  -0.000  -0.010
   16       -0.007  -0.004  -0.000  -0.010
   17       -0.007  -0.004  -0.000  -0.010
   18       -0.006  -0.004  -0.000  -0.010
   19       -0.007  -0.004  -0.000  -0.011
   20       -0.007  -0.004  -0.000  -0.010
   21       -0.007  -0.003  -0.000  -0.010
   22       -0.006  -0.003  -0.000  -0.010
   23       -0.007  -0.004  -0.000  -0.010
   24       -0.007  -0.004  -0.000  -0.010
   25       -0.007  -0.004  -0.000  -0.011
   26       -0.007  -0.004  -0.000  -0.010
   27       -0.007  -0.003  -0.000  -0.010
   28       -0.007  -0.003  -0.000  -0.010
   29       -0.007  -0.004  -0.000  -0.010
   30       -0.007  -0.003  -0.000  -0.010
   31       -0.007  -0.003  -0.000  -0.010
   32       -0.007  -0.004  -0.000  -0.010
   33       -0.007  -0.004  -0.000  -0.010
   34       -0.007  -0.004  -0.000  -0.010
   35       -0.007  -0.004  -0.000  -0.010
   36       -0.007  -0.004  -0.000  -0.010
--------------------------------------------------
tot         -0.191  -0.113  -0.747  -1.050
 
    CHARGE:  cpu time      0.0239: real time      0.0241
    MIXING:  cpu time      0.0026: real time      0.0026
    --------------------------------------------
      LOOP:  cpu time      0.7455: real time      0.7512

 eigenvalue-minimisations  :   672
 total energy-change (2. order) :-0.1269445E+02  (-0.7424040E+00)
 number of electron     216.0000386 magnetization       2.5349418      2.5347622      2.5356065
 augmentation part      -13.2216512 magnetization       2.4044599      2.4038983      2.4039912

 Broyden mixing:
  rms(total) = 0.40037E+00    rms(broyden)= 0.40030E+00
  rms(prec ) = 0.42522E+00
  weight for this iteration     100.00

 eigenvalues of (default mixing * dielectric matrix)
  average eigenvalue GAMMA=   1.3903
  2.5081  2.3256  0.8049  0.6892  0.6239

 Free energy of the ion-electron system (eV)
  ---------------------------------------------------
  alpha Z        PSCENC =       347.93246547
  Ewald energy   TEWEN  =     11197.26003077
  -Hartree energ DENC   =    -19752.94882974
  -exchange      EXHF   =         0.00000000
  -V(xc)+E(xc)   XCENC  =      -722.60561753
  PAW double counting   =     14639.89811374   -13474.55522997
  entropy T*S    EENTRO =        -0.00000000
  eigenvalues    EBANDS =     -1240.55387900
  atomic energy  EATOM  =      8780.64790683
  Solvation  Ediel_sol  =         0.00000000
  ---------------------------------------------------
  free energy    TOTEN  =      -224.92503942 eV

  energy without entropy =     -224.92503942  energy(sigma->0) =     -224.92503942


--------------------------------------------------------------------------------------------------------




--------------------------------------- Iteration      1(  11)  ---------------------------------------


    POTLOK:  cpu time      0.0363: real time      0.0367
    SETDIJ:  cpu time      0.0106: real time      0.0106
     EDDAV:  cpu time      0.6917: real time      0.6972
       DOS:  cpu time      0.0005: real time      0.0005
    CHARGE:  cpu time      0.0230: real time      0.0232
    MIXING:  cpu time      0.0027: real time      0.0027
    --------------------------------------------
      LOOP:  cpu time      0.7648: real time      0.7709

 eigenvalue-minimisations  :   696
 total energy-change (2. order) :-0.1064049E+02  (-0.8777417E+00)
 number of electron     216.0000386 magnetization       1.4079738      1.4078424      1.4085481
 augmentation part      -13.3344850 magnetization       1.3271477      1.3268821      1.3268340

 Broyden mixing:
  rms(total) = 0.24438E+00    rms(broyden)= 0.24418E+00
  rms(prec ) = 0.30944E+00
  weight for this iteration     100.00

 eigenvalues of (default mixing * dielectric matrix)
  average eigenvalue GAMMA=   1.3589
  3.2183  2.2323  0.8088  0.6772  0.6772  0.5395

 Free energy of the ion-electron system (eV)
  ---------------------------------------------------
  alpha Z        PSCENC =       347.93246547
  Ewald energy   TEWEN  =     11197.26003077
  -Hartree energ DENC   =    -19750.11701497
  -exchange      EXHF   =         0.00000000
  -V(xc)+E(xc)   XCENC  =      -729.45056241
  PAW double counting   =     14601.23874420   -13435.49849111
  entropy T*S    EENTRO =        -0.00000000
  eigenvalues    EBANDS =     -1247.57860748
  atomic energy  EATOM  =      8780.64790683
  Solvation  Ediel_sol  =         0.00000000
  ---------------------------------------------------
  free energy    TOTEN  =      -235.56552870 eV

  energy without entropy =     -235.56552870  energy(sigma->0) =     -235.56552870


--------------------------------------------------------------------------------------------------------




--------------------------------------- Iteration      1(  12)  ---------------------------------------


    POTLOK:  cpu time      0.0361: real time      0.0366
    SETDIJ:  cpu time      0.0104: real time      0.0105
     EDDAV:  cpu time      0.7579: real time      0.7639
       DOS:  cpu time      0.0006: real time      0.0006
    CHARGE:  cpu time      0.0234: real time      0.0236
    MIXING:  cpu time      0.0031: real time      0.0031
    --------------------------------------------
      LOOP:  cpu time      0.8315: real time      0.8383

 eigenvalue-minimisations  :   736
 total energy-change (2. order) :-0.2602971E+01  (-0.1877032E+00)
 number of electron     216.0000388 magnetization       0.8439239      0.8438482      0.8443427
 augmentation part      -13.3529516 magnetization       0.7974099      0.7971101      0.7972688

 Broyden mixing:
  rms(total) = 0.14079E+00    rms(broyden)= 0.14061E+00
  rms(prec ) = 0.17785E+00
  weight for this iteration     100.00

 eigenvalues of (default mixing * dielectric matrix)
  average eigenvalue GAMMA=   1.3379
  3.5120  2.2452  0.9558  0.9558  0.7001  0.6133  0.3830

 Free energy of the ion-electron system (eV)
  ---------------------------------------------------
  alpha Z        PSCENC =       347.93246547
  Ewald energy   TEWEN  =     11197.26003077
  -Hartree energ DENC   =    -19743.07628371
  -exchange      EXHF   =         0.00000000
  -V(xc)+E(xc)   XCENC  =      -731.17340708
  PAW double counting   =     14580.05600276   -13414.17752202
  entropy T*S    EENTRO =        -0.00000000
  eigenvalues    EBANDS =     -1255.63769294
  atomic energy  EATOM  =      8780.64790683
  Solvation  Ediel_sol  =         0.00000000
  ---------------------------------------------------
  free energy    TOTEN  =      -238.16849992 eV

  energy without entropy =     -238.16849992  energy(sigma->0) =     -238.16849992


--------------------------------------------------------------------------------------------------------




--------------------------------------- Iteration      1(  13)  ---------------------------------------


    POTLOK:  cpu time      0.0372: real time      0.0377
    SETDIJ:  cpu time      0.0109: real time      0.0109
     EDDAV:  cpu time      0.7037: real time      0.7104
       DOS:  cpu time      0.0004: real time      0.0004
    CHARGE:  cpu time      0.0229: real time      0.0232
    MIXING:  cpu time      0.0029: real time      0.0029
    --------------------------------------------
      LOOP:  cpu time      0.7779: real time      0.7855

 eigenvalue-minimisations  :   712
 total energy-change (2. order) :-0.7586115E+00  (-0.5156620E-01)
 number of electron     216.0000388 magnetization       0.5177409      0.5177106      0.5179871
 augmentation part      -13.3288205 magnetization       0.4944236      0.4947425      0.4954153

 Broyden mixing:
  rms(total) = 0.78661E-01    rms(broyden)= 0.78638E-01
  rms(prec ) = 0.10161E+00
  weight for this iteration     100.00

 eigenvalues of (default mixing * dielectric matrix)
  average eigenvalue GAMMA=   1.3600
  3.4564  2.4167  1.6017  0.8596  0.8596  0.6656  0.6435  0.3770

 Free energy of the ion-electron system (eV)
  ---------------------------------------------------
  alpha Z        PSCENC =       347.93246547
  Ewald energy   TEWEN  =     11197.26003077
  -Hartree energ DENC   =    -19728.68817292
  -exchange      EXHF   =         0.00000000
  -V(xc)+E(xc)   XCENC  =      -731.97095465
  PAW double counting   =     14498.33829051   -13332.35730103
  entropy T*S    EENTRO =        -0.00000000
  eigenvalues    EBANDS =     -1270.08937641
  atomic energy  EATOM  =      8780.64790683
  Solvation  Ediel_sol  =         0.00000000
  ---------------------------------------------------
  free energy    TOTEN  =      -238.92711142 eV

  energy without entropy =     -238.92711142  energy(sigma->0) =     -238.92711142


--------------------------------------------------------------------------------------------------------




--------------------------------------- Iteration      1(  14)  ---------------------------------------


    POTLOK:  cpu time      0.0360: real time      0.0365
    SETDIJ:  cpu time      0.0105: real time      0.0106
     EDDAV:  cpu time      0.7209: real time      0.7277
       DOS:  cpu time      0.0004: real time      0.0004
    CHARGE:  cpu time      0.0230: real time      0.0232
    MIXING:  cpu time      0.0030: real time      0.0031
    --------------------------------------------
      LOOP:  cpu time      0.7938: real time      0.8014

 eigenvalue-minimisations  :   736
 total energy-change (2. order) :-0.4291857E+00  (-0.2490711E-01)
 number of electron     216.0000388 magnetization       0.2871740      0.2871611      0.2873049
 augmentation part      -13.3559015 magnetization       0.2778435      0.2778262      0.2786372

 Broyden mixing:
  rms(total) = 0.54178E-01    rms(broyden)= 0.54141E-01
  rms(prec ) = 0.75176E-01
  weight for this iteration     100.00

 eigenvalues of (default mixing * dielectric matrix)
  average eigenvalue GAMMA=   1.3697
  3.4023  2.7644  1.9865  0.9534  0.9534  0.6711  0.6123  0.6123  0.3717

 Free energy of the ion-electron system (eV)
  ---------------------------------------------------
  alpha Z        PSCENC =       347.93246547
  Ewald energy   TEWEN  =     11197.26003077
  -Hartree energ DENC   =    -19714.17440033
  -exchange      EXHF   =         0.00000000
  -V(xc)+E(xc)   XCENC  =      -732.72782414
  PAW double counting   =     14386.32893929   -13220.22434883
  entropy T*S    EENTRO =        -0.00000000
  eigenvalues    EBANDS =     -1284.39906620
  atomic energy  EATOM  =      8780.64790683
  Solvation  Ediel_sol  =         0.00000000
  ---------------------------------------------------
  free energy    TOTEN  =      -239.35629713 eV

  energy without entropy =     -239.35629713  energy(sigma->0) =     -239.35629713


--------------------------------------------------------------------------------------------------------




--------------------------------------- Iteration      1(  15)  ---------------------------------------


    POTLOK:  cpu time      0.0362: real time      0.0368
    SETDIJ:  cpu time      0.0105: real time      0.0106
     EDDAV:  cpu time      0.7042: real time      0.7114
       DOS:  cpu time      0.0004: real time      0.0004



 total charge

# of ion       s       p       d       tot
------------------------------------------
    1        0.380   0.514   4.395   5.290
    2        0.380   0.514   4.394   5.289
    3        0.380   0.514   4.387   5.281
    4        0.381   0.515   4.406   5.302
    5        0.380   0.515   4.405   5.300
    6        0.380   0.513   4.378   5.271
    7        0.380   0.514   4.398   5.293
    8        0.380   0.514   4.391   5.285
    9        0.380   0.514   4.393   5.288
   10        0.380   0.513   4.377   5.271
   11        0.380   0.514   4.386   5.280
   12        0.381   0.515   4.404   5.299
   13        1.478   2.339   0.058   3.875
   14        1.478   2.339   0.058   3.875
   15        1.478   2.339   0.058   3.875
   16        1.478   2.339   0.058   3.876
   17        1.478   2.339   0.058   3.876
   18        1.478   2.339   0.058   3.876
   19        1.478   2.340   0.058   3.876
   20        1.478   2.338   0.058   3.875
   21        1.478   2.338   0.058   3.875
   22        1.478   2.338   0.058   3.874
   23        1.478   2.340   0.058   3.876
   24        1.478   2.340   0.058   3.876
   25        1.478   2.341   0.058   3.877
   26        1.478   2.341   0.058   3.877
   27        1.478   2.339   0.058   3.876
   28        1.478   2.339   0.058   3.876
   29        1.478   2.338   0.058   3.874
   30        1.478   2.340   0.058   3.877
   31        1.478   2.340   0.058   3.877
   32        1.478   2.338   0.058   3.874
   33        1.478   2.340   0.058   3.876
   34        1.478   2.340   0.058   3.876
   35        1.478   2.339   0.058   3.875
   36        1.478   2.339   0.058   3.876
--------------------------------------------------
tot         40.044  62.310  54.110 156.464



 magnetization (x)

# of ion       s       p       d       tot
------------------------------------------
    1       -0.000  -0.000  -0.001  -0.001
    2       -0.000  -0.000  -0.001  -0.001
    3       -0.000  -0.000  -0.002  -0.002
    4       -0.000  -0.000  -0.001  -0.001
    5       -0.000  -0.000  -0.001  -0.001
    6       -0.000  -0.000  -0.001  -0.001
    7       -0.000  -0.000  -0.001  -0.001
    8       -0.000  -0.000  -0.001  -0.001
    9       -0.000  -0.000  -0.001  -0.001
   10       -0.000  -0.000  -0.002  -0.002
   11       -0.000  -0.000  -0.002  -0.002
   12       -0.000  -0.000  -0.002  -0.002
   13       -0.000  -0.000   0.000  -0.000
   14       -0.000  -0.000   0.000  -0.000
   15       -0.000  -0.000   0.000  -0.000
   16       -0.000  -0.000  -0.000  -0.000
   17       -0.000  -0.000   0.000  -0.000
   18       -0.000  -0.000   0.000  -0.001
   19       -0.000  -0.000   0.000  -0.000
   20       -0.000   0.000   0.000  -0.000
   21       -0.000  -0.000   0.000  -0.000
   22       -0.000  -0.000   0.000  -0.000
   23       -0.000  -0.000   0.000  -0.000
   24       -0.000  -0.000   0.000  -0.000
   25       -0.000  -0.000   0.000  -0.000
   26       -0.000  -0.000   0.000  -0.000
   27       -0.000  -0.000   0.000  -0.000
   28       -0.000  -0.000   0.000  -0.000
   29       -0.000  -0.000   0.000  -0.001
   30       -0.000  -0.000   0.000  -0.000
   31       -0.000  -0.000   0.000  -0.000
   32       -0.000  -0.000   0.000  -0.000
   33       -0.000  -0.000   0.000  -0.000
   34       -0.000  -0.000   0.000  -0.000
   35       -0.000  -0.000   0.000  -0.000
   36       -0.000  -0.000   0.000  -0.000
--------------------------------------------------
tot         -0.003  -0.005  -0.014  -0.022



 magnetization (y)

# of ion       s       p       d       tot
------------------------------------------
    1       -0.000  -0.000  -0.001  -0.001
    2       -0.000  -0.000  -0.001  -0.001
    3       -0.000  -0.000  -0.002  -0.002
    4       -0.000  -0.000  -0.001  -0.001
    5       -0.000  -0.000  -0.001  -0.001
    6       -0.000  -0.000  -0.001  -0.001
    7       -0.000  -0.000  -0.001  -0.001
    8       -0.000  -0.000  -0.001  -0.001
    9       -0.000  -0.000  -0.001  -0.001
   10       -0.000  -0.000  -0.001  -0.002
   11       -0.000  -0.000  -0.001  -0.002
   12       -0.000  -0.000  -0.001  -0.001
   13       -0.000  -0.000   0.000  -0.000
   14       -0.000  -0.000   0.000  -0.000
   15       -0.000  -0.000   0.000  -0.001
   16       -0.000  -0.000  -0.000  -0.000
   17       -0.000  -0.000   0.000  -0.000
   18       -0.000  -0.000   0.000  -0.001
   19       -0.000  -0.000   0.000  -0.000
   20       -0.000  -0.000  -0.000  -0.000
   21       -0.000  -0.000   0.000  -0.000
   22       -0.000  -0.000   0.000  -0.000
   23       -0.000  -0.000   0.000  -0.000
   24       -0.000  -0.000  -0.000  -0.000
   25       -0.000  -0.000   0.000  -0.000
   26       -0.000  -0.000   0.000  -0.000
   27       -0.000  -0.000   0.000  -0.000
   28       -0.000  -0.000   0.000  -0.000
   29       -0.000  -0.000   0.000  -0.000
   30       -0.000  -0.000   0.000  -0.000
   31       -0.000  -0.000   0.000  -0.001
   32       -0.000  -0.000   0.000  -0.000
   33       -0.000  -0.000   0.000  -0.000
   34       -0.000  -0.000   0.000  -0.000
   35       -0.000  -0.000   0.000  -0.000
   36       -0.000  -0.000   0.000  -0.000
--------------------------------------------------
tot         -0.003  -0.006  -0.013  -0.022



 magnetization (z)

# of ion       s       p       d       tot
------------------------------------------
    1       -0.000  -0.000  -0.001  -0.001
    2       -0.000  -0.000  -0.002  -0.002
    3       -0.000  -0.000  -0.001  -0.001
    4       -0.000  -0.000  -0.001  -0.001
    5       -0.000  -0.000  -0.001  -0.001
    6       -0.000  -0.000  -0.001  -0.001
    7       -0.000  -0.000  -0.001  -0.001
    8       -0.000  -0.000  -0.001  -0.001
    9       -0.000  -0.000  -0.001  -0.002
   10       -0.000  -0.000  -0.002  -0.002
   11       -0.000  -0.000  -0.002  -0.002
   12       -0.000  -0.000  -0.002  -0.002
   13       -0.000  -0.000   0.000  -0.000
   14       -0.000  -0.000   0.000  -0.000
   15       -0.000  -0.000   0.000  -0.001
   16       -0.000  -0.000   0.000  -0.000
   17       -0.000  -0.000   0.000  -0.000
   18       -0.000  -0.001   0.000  -0.001
   19       -0.000   0.000   0.000  -0.000
   20       -0.000  -0.000   0.000  -0.000
   21       -0.000  -0.000   0.000  -0.000
   22       -0.000  -0.000   0.000  -0.000
   23       -0.000  -0.000   0.000  -0.000
   24       -0.000  -0.000   0.000  -0.000
   25       -0.000  -0.000   0.000  -0.000
   26       -0.000  -0.000   0.000  -0.000
   27       -0.000  -0.000   0.000  -0.000
   28       -0.000  -0.000   0.000  -0.000
   29       -0.000  -0.000   0.000  -0.000
   30       -0.000  -0.000   0.000  -0.000
   31       -0.000  -0.000   0.000  -0.001
   32       -0.000  -0.000   0.000  -0.000
   33       -0.000  -0.000   0.000  -0.000
   34       -0.000  -0.000   0.000  -0.000
   35       -0.000  -0.000   0.000  -0.000
   36       -0.000  -0.000   0.000  -0.000
--------------------------------------------------
tot         -0.003  -0.006  -0.014  -0.023
 
    CHARGE:  cpu time      0.0247: real time      0.0249
    MIXING:  cpu time      0.0034: real time      0.0034
    --------------------------------------------
      LOOP:  cpu time      0.7794: real time      0.7874

 eigenvalue-minimisations  :   712
 total energy-change (2. order) :-0.1858378E+00  (-0.5687030E-02)
 number of electron     216.0000388 magnetization       0.1485816      0.1485716      0.1486525
 augmentation part      -13.3672063 magnetization       0.1454188      0.1462511      0.1462351

 Broyden mixing:
  rms(total) = 0.32322E-01    rms(broyden)= 0.32278E-01
  rms(prec ) = 0.42936E-01
  weight for this iteration     100.00

 eigenvalues of (default mixing * dielectric matrix)
  average eigenvalue GAMMA=   1.3411
  3.5477  2.7457  2.1926  1.2111  0.8698  0.6795  0.6795  0.6650  0.3722  0.4483

 Free energy of the ion-electron system (eV)
  ---------------------------------------------------
  alpha Z        PSCENC =       347.93246547
  Ewald energy   TEWEN  =     11197.26003077
  -Hartree energ DENC   =    -19705.97122046
  -exchange      EXHF   =         0.00000000
  -V(xc)+E(xc)   XCENC  =      -733.14307227
  PAW double counting   =     14334.04307739   -13167.91235379
  entropy T*S    EENTRO =        -0.00000000
  eigenvalues    EBANDS =     -1292.39896886
  atomic energy  EATOM  =      8780.64790683
  Solvation  Ediel_sol  =         0.00000000
  ---------------------------------------------------
  free energy    TOTEN  =      -239.54213491 eV

  energy without entropy =     -239.54213491  energy(sigma->0) =     -239.54213491


--------------------------------------------------------------------------------------------------------




--------------------------------------- Iteration      1(  16)  ---------------------------------------


    POTLOK:  cpu time      0.0362: real time      0.0367
    SETDIJ:  cpu time      0.0105: real time      0.0106
     EDDAV:  cpu time      0.7389: real time      0.7469
       DOS:  cpu time      0.0007: real time      0.0007
    CHARGE:  cpu time      0.0230: real time      0.0231
    MIXING:  cpu time      0.0033: real time      0.0033
    --------------------------------------------
      LOOP:  cpu time      0.8126: real time      0.8213

 eigenvalue-minimisations  :   760
 total energy-change (2. order) :-0.8269890E-01  (-0.1251275E-02)
 number of electron     216.0000388 magnetization       0.0783470      0.0783330      0.0783782
 augmentation part      -13.3616861 magnetization       0.0761867      0.0761024      0.0765165

 Broyden mixing:
  rms(total) = 0.17163E-01    rms(broyden)= 0.17153E-01
  rms(prec ) = 0.24310E-01
  weight for this iteration     100.00

 eigenvalues of (default mixing * dielectric matrix)
  average eigenvalue GAMMA=   1.3367
  3.7074  2.5320  2.5320  1.4608  0.8739  0.8739  0.6698  0.6698  0.6058  0.3726
  0.4052

 Free energy of the ion-electron system (eV)
  ---------------------------------------------------
  alpha Z        PSCENC =       347.93246547
  Ewald energy   TEWEN  =     11197.26003077
  -Hartree energ DENC   =    -19702.75185689
  -exchange      EXHF   =         0.00000000
  -V(xc)+E(xc)   XCENC  =      -733.28712006
  PAW double counting   =     14330.85893242   -13164.77503467
  entropy T*S    EENTRO =        -0.00000000
  eigenvalues    EBANDS =     -1295.51015769
  atomic energy  EATOM  =      8780.64790683
  Solvation  Ediel_sol  =         0.00000000
  ---------------------------------------------------
  free energy    TOTEN  =      -239.62483381 eV

  energy without entropy =     -239.62483381  energy(sigma->0) =     -239.62483381


--------------------------------------------------------------------------------------------------------




--------------------------------------- Iteration      1(  17)  ---------------------------------------


    POTLOK:  cpu time      0.0362: real time      0.0368
    SETDIJ:  cpu time      0.0105: real time      0.0106
     EDDAV:  cpu time      0.7149: real time      0.7222
       DOS:  cpu time      0.0007: real time      0.0007
    CHARGE:  cpu time      0.0232: real time      0.0234
    MIXING:  cpu time      0.0034: real time      0.0034
    --------------------------------------------
      LOOP:  cpu time      0.7890: real time      0.7971

 eigenvalue-minimisations  :   728
 total energy-change (2. order) :-0.6459182E-01  (-0.6069157E-03)
 number of electron     216.0000387 magnetization       0.0361515      0.0361426      0.0361586
 augmentation part      -13.3562743 magnetization       0.0340553      0.0338898      0.0338506

 Broyden mixing:
  rms(total) = 0.10597E-01    rms(broyden)= 0.10588E-01
  rms(prec ) = 0.17331E-01
  weight for this iteration     100.00

 eigenvalues of (default mixing * dielectric matrix)
  average eigenvalue GAMMA=   1.3469
  3.8476  2.6757  2.6757  1.6780  0.9189  0.9189  0.7419  0.7419  0.5946  0.5946
  0.3711  0.4036

 Free energy of the ion-electron system (eV)
  ---------------------------------------------------
  alpha Z        PSCENC =       347.93246547
  Ewald energy   TEWEN  =     11197.26003077
  -Hartree energ DENC   =    -19699.94049457
  -exchange      EXHF   =         0.00000000
  -V(xc)+E(xc)   XCENC  =      -733.40046905
[...]
     0.0000002     0.0000073    -0.0000010     0.0000000     0.0000004
    -0.0000062     0.0000005     0.0000000     0.0000004     0.0000000
 l=   3
     0.0000000     0.0000000     0.0000000     0.0000000     0.0000000     0.0000000     0.0000000
     0.0000000     0.0000000     0.0000000     0.0000000     0.0000000     0.0000000     0.0000000
     0.0000000     0.0000000     0.0000000     0.0000000     0.0000000     0.0000000     0.0000000
     0.0000000     0.0000000     0.0000000     0.0000000     0.0000000     0.0000000     0.0000000
     0.0000000     0.0000000     0.0000000     0.0000000     0.0000000     0.0000000     0.0000000
     0.0000000     0.0000000     0.0000000     0.0000000     0.0000000     0.0000000     0.0000000
     0.0000000     0.0000000     0.0000000     0.0000000     0.0000000     0.0000000     0.0000000

 Ion:   28  E_soc:     -0.0402960
 l=   1
     0.0000000    -0.0066484    -0.0068366
    -0.0066484     0.0000000    -0.0066636
    -0.0068366    -0.0066636     0.0000000
 l=   2
     0.0000000     0.0000005     0.0000000     0.0000002    -0.0000062
     0.0000005     0.0000000    -0.0000010     0.0000073     0.0000005
     0.0000000    -0.0000010     0.0000000    -0.0000010     0.0000000
     0.0000002     0.0000073    -0.0000010     0.0000000     0.0000004
    -0.0000062     0.0000005     0.0000000     0.0000004     0.0000000
 l=   3
     0.0000000     0.0000000     0.0000000     0.0000000     0.0000000     0.0000000     0.0000000
     0.0000000     0.0000000     0.0000000     0.0000000     0.0000000     0.0000000     0.0000000
     0.0000000     0.0000000     0.0000000     0.0000000     0.0000000     0.0000000     0.0000000
     0.0000000     0.0000000     0.0000000     0.0000000     0.0000000     0.0000000     0.0000000
     0.0000000     0.0000000     0.0000000     0.0000000     0.0000000     0.0000000     0.0000000
     0.0000000     0.0000000     0.0000000     0.0000000     0.0000000     0.0000000     0.0000000
     0.0000000     0.0000000     0.0000000     0.0000000     0.0000000     0.0000000     0.0000000

 Ion:   29  E_soc:     -0.0402930
 l=   1
     0.0000000    -0.0066481    -0.0068359
    -0.0066481     0.0000000    -0.0066630
    -0.0068359    -0.0066630     0.0000000
 l=   2
     0.0000000     0.0000005     0.0000000     0.0000002    -0.0000062
     0.0000005     0.0000000    -0.0000010     0.0000073     0.0000005
     0.0000000    -0.0000010     0.0000000    -0.0000010     0.0000000
     0.0000002     0.0000073    -0.0000010     0.0000000     0.0000004
    -0.0000062     0.0000005     0.0000000     0.0000004     0.0000000
 l=   3
     0.0000000     0.0000000     0.0000000     0.0000000     0.0000000     0.0000000     0.0000000
     0.0000000     0.0000000     0.0000000     0.0000000     0.0000000     0.0000000     0.0000000
     0.0000000     0.0000000     0.0000000     0.0000000     0.0000000     0.0000000     0.0000000
     0.0000000     0.0000000     0.0000000     0.0000000     0.0000000     0.0000000     0.0000000
     0.0000000     0.0000000     0.0000000     0.0000000     0.0000000     0.0000000     0.0000000
     0.0000000     0.0000000     0.0000000     0.0000000     0.0000000     0.0000000     0.0000000
     0.0000000     0.0000000     0.0000000     0.0000000     0.0000000     0.0000000     0.0000000

 Ion:   30  E_soc:     -0.0402954
 l=   1
     0.0000000    -0.0066482    -0.0068366
    -0.0066482     0.0000000    -0.0066635
    -0.0068366    -0.0066635     0.0000000
 l=   2
     0.0000000     0.0000005     0.0000000     0.0000002    -0.0000062
     0.0000005     0.0000000    -0.0000010     0.0000073     0.0000005
     0.0000000    -0.0000010     0.0000000    -0.0000010     0.0000000
     0.0000002     0.0000073    -0.0000010     0.0000000     0.0000004
    -0.0000062     0.0000005     0.0000000     0.0000004     0.0000000
 l=   3
     0.0000000     0.0000000     0.0000000     0.0000000     0.0000000     0.0000000     0.0000000
     0.0000000     0.0000000     0.0000000     0.0000000     0.0000000     0.0000000     0.0000000
     0.0000000     0.0000000     0.0000000     0.0000000     0.0000000     0.0000000     0.0000000
     0.0000000     0.0000000     0.0000000     0.0000000     0.0000000     0.0000000     0.0000000
     0.0000000     0.0000000     0.0000000     0.0000000     0.0000000     0.0000000     0.0000000
     0.0000000     0.0000000     0.0000000     0.0000000     0.0000000     0.0000000     0.0000000
     0.0000000     0.0000000     0.0000000     0.0000000     0.0000000     0.0000000     0.0000000

 Ion:   31  E_soc:     -0.0402960
 l=   1
     0.0000000    -0.0066484    -0.0068366
    -0.0066484     0.0000000    -0.0066636
    -0.0068366    -0.0066636     0.0000000
 l=   2
     0.0000000     0.0000005     0.0000000     0.0000002    -0.0000062
     0.0000005     0.0000000    -0.0000010     0.0000073     0.0000005
     0.0000000    -0.0000010     0.0000000    -0.0000010     0.0000000
     0.0000002     0.0000073    -0.0000010     0.0000000     0.0000004
    -0.0000062     0.0000005     0.0000000     0.0000004     0.0000000
 l=   3
     0.0000000     0.0000000     0.0000000     0.0000000     0.0000000     0.0000000     0.0000000
     0.0000000     0.0000000     0.0000000     0.0000000     0.0000000     0.0000000     0.0000000
     0.0000000     0.0000000     0.0000000     0.0000000     0.0000000     0.0000000     0.0000000
     0.0000000     0.0000000     0.0000000     0.0000000     0.0000000     0.0000000     0.0000000
     0.0000000     0.0000000     0.0000000     0.0000000     0.0000000     0.0000000     0.0000000
     0.0000000     0.0000000     0.0000000     0.0000000     0.0000000     0.0000000     0.0000000
     0.0000000     0.0000000     0.0000000     0.0000000     0.0000000     0.0000000     0.0000000

 Ion:   32  E_soc:     -0.0402925
 l=   1
     0.0000000    -0.0066480    -0.0068359
    -0.0066480     0.0000000    -0.0066630
    -0.0068359    -0.0066630     0.0000000
 l=   2
     0.0000000     0.0000005     0.0000000     0.0000002    -0.0000062
     0.0000005     0.0000000    -0.0000010     0.0000073     0.0000005
     0.0000000    -0.0000010     0.0000000    -0.0000010     0.0000000
     0.0000002     0.0000073    -0.0000010     0.0000000     0.0000004
    -0.0000062     0.0000005     0.0000000     0.0000004     0.0000000
 l=   3
     0.0000000     0.0000000     0.0000000     0.0000000     0.0000000     0.0000000     0.0000000
     0.0000000     0.0000000     0.0000000     0.0000000     0.0000000     0.0000000     0.0000000
     0.0000000     0.0000000     0.0000000     0.0000000     0.0000000     0.0000000     0.0000000
     0.0000000     0.0000000     0.0000000     0.0000000     0.0000000     0.0000000     0.0000000
     0.0000000     0.0000000     0.0000000     0.0000000     0.0000000     0.0000000     0.0000000
     0.0000000     0.0000000     0.0000000     0.0000000     0.0000000     0.0000000     0.0000000
     0.0000000     0.0000000     0.0000000     0.0000000     0.0000000     0.0000000     0.0000000

 Ion:   33  E_soc:     -0.0402925
 l=   1
     0.0000000    -0.0066480    -0.0068359
    -0.0066480     0.0000000    -0.0066629
    -0.0068359    -0.0066629     0.0000000
 l=   2
     0.0000000     0.0000005     0.0000000     0.0000002    -0.0000062
     0.0000005     0.0000000    -0.0000010     0.0000073     0.0000005
     0.0000000    -0.0000010     0.0000000    -0.0000010     0.0000000
     0.0000002     0.0000073    -0.0000010     0.0000000     0.0000004
    -0.0000062     0.0000005     0.0000000     0.0000004     0.0000000
 l=   3
     0.0000000     0.0000000     0.0000000     0.0000000     0.0000000     0.0000000     0.0000000
     0.0000000     0.0000000     0.0000000     0.0000000     0.0000000     0.0000000     0.0000000
     0.0000000     0.0000000     0.0000000     0.0000000     0.0000000     0.0000000     0.0000000
     0.0000000     0.0000000     0.0000000     0.0000000     0.0000000     0.0000000     0.0000000
     0.0000000     0.0000000     0.0000000     0.0000000     0.0000000     0.0000000     0.0000000
     0.0000000     0.0000000     0.0000000     0.0000000     0.0000000     0.0000000     0.0000000
     0.0000000     0.0000000     0.0000000     0.0000000     0.0000000     0.0000000     0.0000000

 Ion:   34  E_soc:     -0.0402930
 l=   1
     0.0000000    -0.0066481    -0.0068359
    -0.0066481     0.0000000    -0.0066630
    -0.0068359    -0.0066630     0.0000000
 l=   2
     0.0000000     0.0000005     0.0000000     0.0000002    -0.0000062
     0.0000005     0.0000000    -0.0000010     0.0000073     0.0000005
     0.0000000    -0.0000010     0.0000000    -0.0000010     0.0000000
     0.0000002     0.0000073    -0.0000010     0.0000000     0.0000004
    -0.0000062     0.0000005     0.0000000     0.0000004     0.0000000
 l=   3
     0.0000000     0.0000000     0.0000000     0.0000000     0.0000000     0.0000000     0.0000000
     0.0000000     0.0000000     0.0000000     0.0000000     0.0000000     0.0000000     0.0000000
     0.0000000     0.0000000     0.0000000     0.0000000     0.0000000     0.0000000     0.0000000
     0.0000000     0.0000000     0.0000000     0.0000000     0.0000000     0.0000000     0.0000000
     0.0000000     0.0000000     0.0000000     0.0000000     0.0000000     0.0000000     0.0000000
     0.0000000     0.0000000     0.0000000     0.0000000     0.0000000     0.0000000     0.0000000
     0.0000000     0.0000000     0.0000000     0.0000000     0.0000000     0.0000000     0.0000000

 Ion:   35  E_soc:     -0.0402930
 l=   1
     0.0000000    -0.0066482    -0.0068359
    -0.0066482     0.0000000    -0.0066630
    -0.0068359    -0.0066630     0.0000000
 l=   2
     0.0000000     0.0000005     0.0000000     0.0000002    -0.0000062
     0.0000005     0.0000000    -0.0000010     0.0000073     0.0000005
     0.0000000    -0.0000010     0.0000000    -0.0000010     0.0000000
     0.0000002     0.0000073    -0.0000010     0.0000000     0.0000004
    -0.0000062     0.0000005     0.0000000     0.0000004     0.0000000
 l=   3
     0.0000000     0.0000000     0.0000000     0.0000000     0.0000000     0.0000000     0.0000000
     0.0000000     0.0000000     0.0000000     0.0000000     0.0000000     0.0000000     0.0000000
     0.0000000     0.0000000     0.0000000     0.0000000     0.0000000     0.0000000     0.0000000
     0.0000000     0.0000000     0.0000000     0.0000000     0.0000000     0.0000000     0.0000000
     0.0000000     0.0000000     0.0000000     0.0000000     0.0000000     0.0000000     0.0000000
     0.0000000     0.0000000     0.0000000     0.0000000     0.0000000     0.0000000     0.0000000
     0.0000000     0.0000000     0.0000000     0.0000000     0.0000000     0.0000000     0.0000000

 Ion:   36  E_soc:     -0.0402923
 l=   1
     0.0000000    -0.0066480    -0.0068358
    -0.0066480     0.0000000    -0.0066629
    -0.0068358    -0.0066629     0.0000000
 l=   2
     0.0000000     0.0000005     0.0000000     0.0000002    -0.0000062
     0.0000005     0.0000000    -0.0000010     0.0000073     0.0000005
     0.0000000    -0.0000010     0.0000000    -0.0000010     0.0000000
     0.0000002     0.0000073    -0.0000010     0.0000000     0.0000004
    -0.0000062     0.0000005     0.0000000     0.0000004     0.0000000
 l=   3
     0.0000000     0.0000000     0.0000000     0.0000000     0.0000000     0.0000000     0.0000000
     0.0000000     0.0000000     0.0000000     0.0000000     0.0000000     0.0000000     0.0000000
     0.0000000     0.0000000     0.0000000     0.0000000     0.0000000     0.0000000     0.0000000
     0.0000000     0.0000000     0.0000000     0.0000000     0.0000000     0.0000000     0.0000000
     0.0000000     0.0000000     0.0000000     0.0000000     0.0000000     0.0000000     0.0000000
     0.0000000     0.0000000     0.0000000     0.0000000     0.0000000     0.0000000     0.0000000
     0.0000000     0.0000000     0.0000000     0.0000000     0.0000000     0.0000000     0.0000000



 total charge

# of ion       s       p       d       tot
------------------------------------------
    1        0.381   0.514   4.396   5.291
    2        0.380   0.514   4.395   5.290
    3        0.381   0.514   4.396   5.291
    4        0.381   0.514   4.396   5.291
    5        0.380   0.514   4.395   5.290
    6        0.380   0.514   4.395   5.290
    7        0.381   0.514   4.396   5.290
    8        0.380   0.514   4.395   5.290
    9        0.381   0.514   4.396   5.290
   10        0.381   0.514   4.396   5.291
   11        0.381   0.514   4.396   5.291
   12        0.381   0.514   4.396   5.291
   13        1.479   2.338   0.058   3.875
   14        1.479   2.338   0.058   3.875
   15        1.479   2.338   0.058   3.875
   16        1.479   2.338   0.058   3.875
   17        1.479   2.338   0.058   3.875
   18        1.479   2.338   0.058   3.875
   19        1.479   2.338   0.058   3.875
   20        1.479   2.338   0.058   3.875
   21        1.479   2.338   0.058   3.875
   22        1.479   2.338   0.058   3.875
   23        1.479   2.338   0.058   3.875
   24        1.479   2.338   0.058   3.875
   25        1.479   2.338   0.058   3.875
   26        1.479   2.338   0.058   3.875
   27        1.479   2.338   0.058   3.875
   28        1.479   2.338   0.058   3.875
   29        1.479   2.338   0.058   3.875
   30        1.479   2.338   0.058   3.875
   31        1.479   2.338   0.058   3.875
   32        1.479   2.338   0.058   3.875
   33        1.479   2.338   0.058   3.875
   34        1.479   2.338   0.058   3.875
   35        1.479   2.338   0.058   3.875
   36        1.479   2.338   0.058   3.875
--------------------------------------------------
tot         40.056  62.292  54.143 156.492



 magnetization (x)

# of ion       s       p       d       tot
------------------------------------------
    1       -0.000  -0.000  -0.000  -0.000
    2       -0.000  -0.000  -0.000  -0.000
    3       -0.000  -0.000  -0.000  -0.000
    4       -0.000  -0.000  -0.000  -0.000
    5       -0.000  -0.000  -0.000  -0.000
    6       -0.000  -0.000  -0.000  -0.000
    7       -0.000  -0.000  -0.000  -0.000
    8       -0.000  -0.000  -0.000  -0.000
    9       -0.000  -0.000  -0.000  -0.000
   10       -0.000  -0.000  -0.000  -0.000
   11       -0.000  -0.000  -0.000  -0.000
   12       -0.000  -0.000  -0.000  -0.000
   13       -0.000  -0.000  -0.000  -0.000
   14       -0.000  -0.000  -0.000  -0.000
   15       -0.000  -0.000  -0.000  -0.000
   16       -0.000  -0.000  -0.000  -0.000
   17       -0.000  -0.000  -0.000  -0.000
   18       -0.000  -0.000  -0.000  -0.000
   19       -0.000  -0.000  -0.000  -0.000
   20       -0.000  -0.000  -0.000  -0.000
   21       -0.000  -0.000  -0.000  -0.000
   22       -0.000  -0.000  -0.000  -0.000
   23       -0.000  -0.000  -0.000  -0.000
   24       -0.000  -0.000  -0.000  -0.000
   25       -0.000  -0.000  -0.000  -0.000
   26       -0.000  -0.000  -0.000  -0.000
   27       -0.000  -0.000  -0.000  -0.000
   28       -0.000  -0.000   0.000  -0.000
   29       -0.000  -0.000  -0.000  -0.000
   30       -0.000  -0.000  -0.000  -0.000
   31       -0.000  -0.000  -0.000  -0.000
   32       -0.000  -0.000  -0.000  -0.000
   33       -0.000  -0.000  -0.000  -0.000
   34        0.000  -0.000  -0.000  -0.000
   35       -0.000  -0.000  -0.000  -0.000
   36       -0.000  -0.000  -0.000  -0.000
--------------------------------------------------
tot         -0.000  -0.000  -0.000  -0.000



 magnetization (y)

# of ion       s       p       d       tot
------------------------------------------
    1       -0.000  -0.000  -0.000  -0.000
    2       -0.000  -0.000  -0.000  -0.000
    3       -0.000  -0.000  -0.000  -0.000
    4       -0.000  -0.000  -0.000  -0.000
    5       -0.000  -0.000  -0.000  -0.000
    6       -0.000  -0.000  -0.000  -0.000
    7       -0.000  -0.000  -0.000  -0.000
    8       -0.000  -0.000  -0.000  -0.000
    9       -0.000  -0.000  -0.000  -0.000
   10       -0.000  -0.000  -0.000  -0.000
   11       -0.000  -0.000  -0.000  -0.000
   12       -0.000  -0.000  -0.000  -0.000
   13       -0.000  -0.000  -0.000  -0.000
   14       -0.000  -0.000  -0.000  -0.000
   15       -0.000  -0.000  -0.000  -0.000
   16       -0.000  -0.000  -0.000  -0.000
   17       -0.000  -0.000  -0.000  -0.000
   18       -0.000  -0.000   0.000  -0.000
   19       -0.000  -0.000  -0.000  -0.000
   20       -0.000  -0.000  -0.000  -0.000
   21       -0.000  -0.000  -0.000  -0.000
   22       -0.000  -0.000  -0.000  -0.000
   23       -0.000  -0.000  -0.000  -0.000
   24       -0.000  -0.000  -0.000  -0.000
   25       -0.000  -0.000  -0.000  -0.000
   26       -0.000  -0.000  -0.000  -0.000
   27       -0.000  -0.000  -0.000  -0.000
   28       -0.000  -0.000  -0.000  -0.000
   29       -0.000  -0.000  -0.000  -0.000
   30        0.000  -0.000  -0.000  -0.000
   31       -0.000  -0.000  -0.000  -0.000
   32       -0.000  -0.000  -0.000  -0.000
   33       -0.000  -0.000  -0.000  -0.000
   34       -0.000  -0.000   0.000  -0.000
   35       -0.000  -0.000  -0.000  -0.000
   36        0.000  -0.000  -0.000  -0.000
--------------------------------------------------
tot         -0.000  -0.000  -0.000  -0.000



 magnetization (z)

# of ion       s       p       d       tot
------------------------------------------
    1       -0.000  -0.000  -0.000  -0.000
    2       -0.000  -0.000  -0.000  -0.000
    3       -0.000  -0.000  -0.000  -0.000
    4       -0.000  -0.000  -0.000  -0.000
    5       -0.000  -0.000  -0.000  -0.000
    6       -0.000  -0.000  -0.000  -0.000
    7       -0.000  -0.000  -0.000  -0.000
    8       -0.000  -0.000  -0.000  -0.000
    9       -0.000  -0.000  -0.000  -0.000
   10       -0.000  -0.000  -0.000  -0.000
   11       -0.000  -0.000  -0.000  -0.000
   12       -0.000  -0.000  -0.000  -0.000
   13       -0.000  -0.000  -0.000  -0.000
   14       -0.000   0.000  -0.000  -0.000
   15       -0.000  -0.000  -0.000  -0.000
   16       -0.000  -0.000   0.000  -0.000
   17       -0.000  -0.000  -0.000  -0.000
   18       -0.000  -0.000   0.000  -0.000
   19        0.000   0.000  -0.000   0.000
   20       -0.000  -0.000  -0.000  -0.000
   21       -0.000  -0.000  -0.000  -0.000
   22       -0.000  -0.000  -0.000  -0.000
   23       -0.000  -0.000  -0.000  -0.000
   24       -0.000  -0.000   0.000  -0.000
   25       -0.000  -0.000   0.000  -0.000
   26       -0.000  -0.000  -0.000  -0.000
   27       -0.000  -0.000  -0.000  -0.000
   28       -0.000  -0.000  -0.000  -0.000
   29       -0.000  -0.000  -0.000  -0.000
   30       -0.000   0.000  -0.000   0.000
   31       -0.000  -0.000  -0.000  -0.000
   32       -0.000  -0.000  -0.000  -0.000
   33        0.000  -0.000  -0.000  -0.000
   34       -0.000  -0.000  -0.000  -0.000
   35       -0.000  -0.000  -0.000  -0.000
   36        0.000   0.000  -0.000   0.000
--------------------------------------------------
tot         -0.000  -0.000  -0.000  -0.000
 

 total amount of memory used by VASP MPI-rank0    42986. kBytes
=======================================================================

   base      :      30000. kBytes
   nonl-proj :       1893. kBytes
   fftplans  :       1714. kBytes
   grid      :       6307. kBytes
   one-center:        373. kBytes
   wavefun   :       2699. kBytes
 
  
  
 General timing and accounting informations for this job:
 ========================================================
  
                  Total CPU time used (sec):       32.372
                            User time (sec):       31.230
                          System time (sec):        1.142
                         Elapsed time (sec):       33.791
  
                   Maximum memory used (kb):      292764.
                   Average memory used (kb):          N/A
  
                          Minor page faults:        53732
                          Major page faults:           44
                 Voluntary context switches:         2326
