 vasp.6.3.0 20Jan22 (build Oct 03 2022 14:51:58) complex                        
  
 executed on             LinuxIFC date 2024.07.09  14:37:52
 running on   48 total cores
 distrk:  each k-point on   48 cores,    1 groups
 distr:  one band on NCORE=   6 cores,    8 groups


--------------------------------------------------------------------------------------------------------


 INCAR:
   SYSTEM = MoSe2
   PREC = Accurate
   ISPIN = 1
   ISTART = 0
   ICHARG = 11
   NPAR = 8
   ISMEAR = 0
   SIGMA = 0.1
   ALGO = Normal
   NELMIN = 4
   NELM = 200
   EDIFF = 1E-6
   IBRION = -1
   NWRITE = 1
   LORBIT = 11
   LWAVE = .TRUE.
   LCHARG = .FALSE.
   LSORBIT = .TRUE.

 POTCAR:    PAW_PBE Mo 08Apr2002                  
 POTCAR:    PAW_PBE Se 06Sep2000                  
 -----------------------------------------------------------------------------
|                                                                             |
|           W    W    AA    RRRRR   N    N  II  N    N   GGGG   !!!           |
|           W    W   A  A   R    R  NN   N  II  NN   N  G    G  !!!           |
|           W    W  A    A  R    R  N N  N  II  N N  N  G       !!!           |
|           W WW W  AAAAAA  RRRRR   N  N N  II  N  N N  G  GGG   !            |
|           WW  WW  A    A  R   R   N   NN  II  N   NN  G    G                |
|           W    W  A    A  R    R  N    N  II  N    N   GGGG   !!!           |
|                                                                             |
|     You use a magnetic or noncollinear calculation, but did not specify     |
|     the initial magnetic moment with the MAGMOM tag. Note that a            |
|     default of 1 will be used for all atoms. This ferromagnetic setup       |
|     may break the symmetry of the crystal, in particular it may rule        |
|     out finding an antiferromagnetic solution. Thence, we recommend         |
|     setting the initial magnetic moment manually or verifying carefully     |
|     that this magnetic setup is desired.                                    |
|                                                                             |
 -----------------------------------------------------------------------------

 POTCAR:    PAW_PBE Mo 08Apr2002                  
  local pseudopotential read in
  partial core-charges read in
  partial kinetic energy density read in
  atomic valenz-charges read in
  non local Contribution for L=           2  read in
    real space projection operators read in
  non local Contribution for L=           2  read in
    real space projection operators read in
  non local Contribution for L=           0  read in
    real space projection operators read in
  non local Contribution for L=           0  read in
    real space projection operators read in
  non local Contribution for L=           1  read in
    real space projection operators read in
  non local Contribution for L=           1  read in
    real space projection operators read in
    PAW grid and wavefunctions read in
 
   number of l-projection  operators is LMAX  =           6
   number of lm-projection operators is LMMAX =          18
 
 POTCAR:    PAW_PBE Se 06Sep2000                  
  local pseudopotential read in
  partial core-charges read in
  partial kinetic energy density read in
  atomic valenz-charges read in
  non local Contribution for L=           0  read in
    real space projection operators read in
  non local Contribution for L=           0  read in
    real space projection operators read in
  non local Contribution for L=           1  read in
    real space projection operators read in
  non local Contribution for L=           1  read in
    real space projection operators read in
  non local Contribution for L=           2  read in
    real space projection operators read in
    PAW grid and wavefunctions read in
 
   number of l-projection  operators is LMAX  =           5
   number of lm-projection operators is LMMAX =          13
 
  PAW_PBE Mo 08Apr2002                  :
 energy of atom  1       EATOM= -217.5176
 kinetic energy error for atom=    0.0303 (will be added to EATOM!!)
  PAW_PBE Se 06Sep2000                  :
 energy of atom  2       EATOM= -257.1286
 kinetic energy error for atom=    0.0119 (will be added to EATOM!!)
 
 
 POSCAR: Mo  S
  positions in direct lattice
  velocities in cartesian coordinates
 exchange correlation table for  LEXCH =        8
   RHO(1)=    0.500       N(1)  =     2000
   RHO(2)=  100.500       N(2)  =     4000

 VTST: version 4.2, (08/11/21)

 CHAIN: initializing optimizer
 
 OPT: Using VASP Dynamics algorithm
 CHAIN: Read ICHAIN            0
 
 POSCAR: Mo  S
  positions in direct lattice
  velocities in cartesian coordinates
 


--------------------------------------------------------------------------------------------------------


 ion  position               nearest neighbor table
   1  0.656  0.328  0.500-   3 2.54   2 2.54   2 2.54   3 2.54   3 2.54   2 2.54
   2  0.990  0.995  0.389-   1 2.54   1 2.54   1 2.54
   3  0.990  0.995  0.612-   1 2.54   1 2.54   1 2.54
 
  LATTYP: Found a hexagonal cell.
 ALAT       =     3.3200000000
 C/A-ratio  =     4.5180722892
  
  Lattice vectors:
  
 A1 = (   3.3200000000,   0.0000000000,   0.0000000000)
 A2 = (  -1.6600000000,   2.8752043406,   0.0000000000)
 A3 = (   0.0000000000,   0.0000000000,  15.0000000000)


Analysis of symmetry for initial positions (statically):
=====================================================================
 Subroutine PRICEL returns:
 Original cell was already a primitive cell.
 

 Routine SETGRP: Setting up the symmetry group for a 
 hexagonal supercell.


 Subroutine GETGRP returns: Found  2 space group operations
 (whereof  2 operations were pure point group operations)
 out of a pool of 24 trial point group operations.


The static configuration has the point symmetry C_1h.


Analysis of symmetry for dynamics (positions and initial velocities):
=====================================================================
 Subroutine PRICEL returns:
 Original cell was already a primitive cell.
 

 Routine SETGRP: Setting up the symmetry group for a 
 hexagonal supercell.


 Subroutine GETGRP returns: Found  2 space group operations
 (whereof  2 operations were pure point group operations)
 out of a pool of 24 trial point group operations.


The dynamic configuration has the point symmetry C_1h.


Analysis of structural, dynamic, and magnetic symmetry:
=====================================================================
 Subroutine PRICEL returns:
 Original cell was already a primitive cell.
 

 Routine SETGRP: Setting up the symmetry group for a 
 hexagonal supercell.


 Subroutine GETGRP returns: Found  1 space group operations
 (whereof  1 operations were pure point group operations)
 out of a pool of 24 trial point group operations.


The overall configuration has the point symmetry C_1 .


 Subroutine INISYM returns: Found  1 space group operations
 (whereof  1 operations are pure point group operations),
 and found     1 'primitive' translations


----------------------------------------------------------------------------------------

                                     Primitive cell                                     

  volume of cell :     143.1852

  direct lattice vectors                    reciprocal lattice vectors
     3.320000000  0.000000000  0.000000000     0.301204819  0.173900683  0.000000000
    -1.660000000  2.875204341  0.000000000     0.000000000  0.347801367  0.000000000
     0.000000000  0.000000000 15.000000000     0.000000000  0.000000000  0.066666667

  length of vectors
     3.320000000  3.320000000 15.000000000     0.347801367  0.347801367  0.066666667

  position of ions in fractional coordinates (direct lattice)
     0.656360473  0.328183185  0.500455147
     0.989670353  0.994833693  0.389220100
     0.989712767  0.994854919  0.611690486

  ion indices of the primitive-cell ions
   primitive index   ion index
                 1           1
                 2           2
                 3           3

----------------------------------------------------------------------------------------

 
 
 KPOINTS: dummy                                   

Interpolating k-points between supplied coordinates.

 Line segments in fractional coordinates (reciprocal lattice):
    0.000000  0.500000  0.000000  ...  0.000000  0.000000  0.000000
    0.000000  0.000000  0.000000  ...  0.333330  0.333330  0.000000
    0.333330  0.333330  0.000000  ... -0.333330  0.666670  0.000000
   -0.333330  0.666670  0.000000  ...  0.000000  0.000000  0.000000

 Generated    80 points on each line segment, for a total of    320 k-points:

 Following reciprocal coordinates:
            Coordinates               Weight
  0.000000  0.500000  0.000000      0.003125
  0.000000  0.493671  0.000000      0.003125
  0.000000  0.487342  0.000000      0.003125
  0.000000  0.481013  0.000000      0.003125
  0.000000  0.474684  0.000000      0.003125
  0.000000  0.468354  0.000000      0.003125
  0.000000  0.462025  0.000000      0.003125
  0.000000  0.455696  0.000000      0.003125
  0.000000  0.449367  0.000000      0.003125
  0.000000  0.443038  0.000000      0.003125
  0.000000  0.436709  0.000000      0.003125
  0.000000  0.430380  0.000000      0.003125
  0.000000  0.424051  0.000000      0.003125
  0.000000  0.417722  0.000000      0.003125
  0.000000  0.411392  0.000000      0.003125
  0.000000  0.405063  0.000000      0.003125
  0.000000  0.398734  0.000000      0.003125
  0.000000  0.392405  0.000000      0.003125
  0.000000  0.386076  0.000000      0.003125
  0.000000  0.379747  0.000000      0.003125
  0.000000  0.373418  0.000000      0.003125
  0.000000  0.367089  0.000000      0.003125
  0.000000  0.360759  0.000000      0.003125
  0.000000  0.354430  0.000000      0.003125
  0.000000  0.348101  0.000000      0.003125
  0.000000  0.341772  0.000000      0.003125
  0.000000  0.335443  0.000000      0.003125
  0.000000  0.329114  0.000000      0.003125
  0.000000  0.322785  0.000000      0.003125
  0.000000  0.316456  0.000000      0.003125
  0.000000  0.310127  0.000000      0.003125
  0.000000  0.303797  0.000000      0.003125
  0.000000  0.297468  0.000000      0.003125
  0.000000  0.291139  0.000000      0.003125
  0.000000  0.284810  0.000000      0.003125
  0.000000  0.278481  0.000000      0.003125
  0.000000  0.272152  0.000000      0.003125
  0.000000  0.265823  0.000000      0.003125
  0.000000  0.259494  0.000000      0.003125
  0.000000  0.253165  0.000000      0.003125
  0.000000  0.246835  0.000000      0.003125
  0.000000  0.240506  0.000000      0.003125
  0.000000  0.234177  0.000000      0.003125
  0.000000  0.227848  0.000000      0.003125
  0.000000  0.221519  0.000000      0.003125
  0.000000  0.215190  0.000000      0.003125
  0.000000  0.208861  0.000000      0.003125
  0.000000  0.202532  0.000000      0.003125
  0.000000  0.196203  0.000000      0.003125
  0.000000  0.189873  0.000000      0.003125
  0.000000  0.183544  0.000000      0.003125
  0.000000  0.177215  0.000000      0.003125
  0.000000  0.170886  0.000000      0.003125
  0.000000  0.164557  0.000000      0.003125
  0.000000  0.158228  0.000000      0.003125
  0.000000  0.151899  0.000000      0.003125
  0.000000  0.145570  0.000000      0.003125
  0.000000  0.139241  0.000000      0.003125
  0.000000  0.132911  0.000000      0.003125
  0.000000  0.126582  0.000000      0.003125
  0.000000  0.120253  0.000000      0.003125
  0.000000  0.113924  0.000000      0.003125
  0.000000  0.107595  0.000000      0.003125
  0.000000  0.101266  0.000000      0.003125
  0.000000  0.094937  0.000000      0.003125
  0.000000  0.088608  0.000000      0.003125
  0.000000  0.082278  0.000000      0.003125
  0.000000  0.075949  0.000000      0.003125
  0.000000  0.069620  0.000000      0.003125
  0.000000  0.063291  0.000000      0.003125
  0.000000  0.056962  0.000000      0.003125
  0.000000  0.050633  0.000000      0.003125
  0.000000  0.044304  0.000000      0.003125
  0.000000  0.037975  0.000000      0.003125
  0.000000  0.031646  0.000000      0.003125
  0.000000  0.025316  0.000000      0.003125
  0.000000  0.018987  0.000000      0.003125
  0.000000  0.012658  0.000000      0.003125
  0.000000  0.006329  0.000000      0.003125
  0.000000  0.000000  0.000000      0.003125
  0.000000  0.000000  0.000000      0.003125
  0.004219  0.004219  0.000000      0.003125
  0.008439  0.008439  0.000000      0.003125
  0.012658  0.012658  0.000000      0.003125
  0.016877  0.016877  0.000000      0.003125
  0.021097  0.021097  0.000000      0.003125
  0.025316  0.025316  0.000000      0.003125
  0.029536  0.029536  0.000000      0.003125
  0.033755  0.033755  0.000000      0.003125
  0.037974  0.037974  0.000000      0.003125
  0.042194  0.042194  0.000000      0.003125
  0.046413  0.046413  0.000000      0.003125
  0.050632  0.050632  0.000000      0.003125
  0.054852  0.054852  0.000000      0.003125
  0.059071  0.059071  0.000000      0.003125
  0.063291  0.063291  0.000000      0.003125
  0.067510  0.067510  0.000000      0.003125
  0.071729  0.071729  0.000000      0.003125
  0.075949  0.075949  0.000000      0.003125
  0.080168  0.080168  0.000000      0.003125
  0.084387  0.084387  0.000000      0.003125
  0.088607  0.088607  0.000000      0.003125
  0.092826  0.092826  0.000000      0.003125
  0.097045  0.097045  0.000000      0.003125
  0.101265  0.101265  0.000000      0.003125
  0.105484  0.105484  0.000000      0.003125
  0.109704  0.109704  0.000000      0.003125
  0.113923  0.113923  0.000000      0.003125
  0.118142  0.118142  0.000000      0.003125
  0.122362  0.122362  0.000000      0.003125
  0.126581  0.126581  0.000000      0.003125
  0.130800  0.130800  0.000000      0.003125
  0.135020  0.135020  0.000000      0.003125
  0.139239  0.139239  0.000000      0.003125
  0.143458  0.143458  0.000000      0.003125
  0.147678  0.147678  0.000000      0.003125
  0.151897  0.151897  0.000000      0.003125
  0.156117  0.156117  0.000000      0.003125
  0.160336  0.160336  0.000000      0.003125
  0.164555  0.164555  0.000000      0.003125
  0.168775  0.168775  0.000000      0.003125
  0.172994  0.172994  0.000000      0.003125
  0.177213  0.177213  0.000000      0.003125
  0.181433  0.181433  0.000000      0.003125
  0.185652  0.185652  0.000000      0.003125
  0.189872  0.189872  0.000000      0.003125
  0.194091  0.194091  0.000000      0.003125
  0.198310  0.198310  0.000000      0.003125
  0.202530  0.202530  0.000000      0.003125
  0.206749  0.206749  0.000000      0.003125
  0.210968  0.210968  0.000000      0.003125
  0.215188  0.215188  0.000000      0.003125
  0.219407  0.219407  0.000000      0.003125
  0.223626  0.223626  0.000000      0.003125
  0.227846  0.227846  0.000000      0.003125
  0.232065  0.232065  0.000000      0.003125
  0.236285  0.236285  0.000000      0.003125
  0.240504  0.240504  0.000000      0.003125
  0.244723  0.244723  0.000000      0.003125
  0.248943  0.248943  0.000000      0.003125
  0.253162  0.253162  0.000000      0.003125
  0.257381  0.257381  0.000000      0.003125
  0.261601  0.261601  0.000000      0.003125
  0.265820  0.265820  0.000000      0.003125
  0.270039  0.270039  0.000000      0.003125
  0.274259  0.274259  0.000000      0.003125
  0.278478  0.278478  0.000000      0.003125
  0.282698  0.282698  0.000000      0.003125
  0.286917  0.286917  0.000000      0.003125
  0.291136  0.291136  0.000000      0.003125
  0.295356  0.295356  0.000000      0.003125
  0.299575  0.299575  0.000000      0.003125
  0.303794  0.303794  0.000000      0.003125
  0.308014  0.308014  0.000000      0.003125
  0.312233  0.312233  0.000000      0.003125
  0.316453  0.316453  0.000000      0.003125
  0.320672  0.320672  0.000000      0.003125
  0.324891  0.324891  0.000000      0.003125
  0.329111  0.329111  0.000000      0.003125
  0.333330  0.333330  0.000000      0.003125
  0.333330  0.333330  0.000000      0.003125
  0.324891  0.337549  0.000000      0.003125
  0.316453  0.341769  0.000000      0.003125
  0.308014  0.345988  0.000000      0.003125
  0.299575  0.350208  0.000000      0.003125
  0.291136  0.354427  0.000000      0.003125
  0.282698  0.358647  0.000000      0.003125
  0.274259  0.362866  0.000000      0.003125
  0.265820  0.367086  0.000000      0.003125
  0.257381  0.371305  0.000000      0.003125
  0.248943  0.375525  0.000000      0.003125
  0.240504  0.379744  0.000000      0.003125
  0.232065  0.383964  0.000000      0.003125
  0.223626  0.388183  0.000000      0.003125
  0.215188  0.392403  0.000000      0.003125
  0.206749  0.396622  0.000000      0.003125
  0.198310  0.400842  0.000000      0.003125
  0.189872  0.405061  0.000000      0.003125
  0.181433  0.409281  0.000000      0.003125
  0.172994  0.413500  0.000000      0.003125
  0.164555  0.417720  0.000000      0.003125
  0.156117  0.421939  0.000000      0.003125
  0.147678  0.426159  0.000000      0.003125
  0.139239  0.430378  0.000000      0.003125
  0.130800  0.434598  0.000000      0.003125
  0.122362  0.438817  0.000000      0.003125
  0.113923  0.443037  0.000000      0.003125
  0.105484  0.447256  0.000000      0.003125
  0.097045  0.451476  0.000000      0.003125
  0.088607  0.455695  0.000000      0.003125
  0.080168  0.459915  0.000000      0.003125
  0.071729  0.464134  0.000000      0.003125
  0.063291  0.468354  0.000000      0.003125
  0.054852  0.472573  0.000000      0.003125
  0.046413  0.476793  0.000000      0.003125
  0.037974  0.481012  0.000000      0.003125
  0.029536  0.485232  0.000000      0.003125
  0.021097  0.489451  0.000000      0.003125
  0.012658  0.493671  0.000000      0.003125
  0.004219  0.497890  0.000000      0.003125
 -0.004219  0.502110  0.000000      0.003125
 -0.012658  0.506329  0.000000      0.003125
 -0.021097  0.510549  0.000000      0.003125
 -0.029536  0.514768  0.000000      0.003125
 -0.037974  0.518988  0.000000      0.003125
 -0.046413  0.523207  0.000000      0.003125
 -0.054852  0.527427  0.000000      0.003125
 -0.063291  0.531646  0.000000      0.003125
 -0.071729  0.535866  0.000000      0.003125
 -0.080168  0.540085  0.000000      0.003125
 -0.088607  0.544305  0.000000      0.003125
 -0.097045  0.548524  0.000000      0.003125
 -0.105484  0.552744  0.000000      0.003125
 -0.113923  0.556963  0.000000      0.003125
 -0.122362  0.561183  0.000000      0.003125
 -0.130800  0.565402  0.000000      0.003125
 -0.139239  0.569622  0.000000      0.003125
 -0.147678  0.573841  0.000000      0.003125
 -0.156117  0.578061  0.000000      0.003125
 -0.164555  0.582280  0.000000      0.003125
 -0.172994  0.586500  0.000000      0.003125
 -0.181433  0.590719  0.000000      0.003125
 -0.189872  0.594939  0.000000      0.003125
 -0.198310  0.599158  0.000000      0.003125
 -0.206749  0.603378  0.000000      0.003125
 -0.215188  0.607597  0.000000      0.003125
 -0.223626  0.611817  0.000000      0.003125
 -0.232065  0.616036  0.000000      0.003125
 -0.240504  0.620256  0.000000      0.003125
 -0.248943  0.624475  0.000000      0.003125
 -0.257381  0.628695  0.000000      0.003125
 -0.265820  0.632914  0.000000      0.003125
 -0.274259  0.637134  0.000000      0.003125
 -0.282698  0.641353  0.000000      0.003125
 -0.291136  0.645573  0.000000      0.003125
 -0.299575  0.649792  0.000000      0.003125
 -0.308014  0.654012  0.000000      0.003125
 -0.316453  0.658231  0.000000      0.003125
 -0.324891  0.662451  0.000000      0.003125
 -0.333330  0.666670  0.000000      0.003125
 -0.333330  0.666670  0.000000      0.003125
 -0.329111  0.658231  0.000000      0.003125
 -0.324891  0.649792  0.000000      0.003125
 -0.320672  0.641353  0.000000      0.003125
 -0.316453  0.632915  0.000000      0.003125
 -0.312233  0.624476  0.000000      0.003125
 -0.308014  0.616037  0.000000      0.003125
 -0.303794  0.607598  0.000000      0.003125
 -0.299575  0.599159  0.000000      0.003125
 -0.295356  0.590720  0.000000      0.003125
 -0.291136  0.582281  0.000000      0.003125
 -0.286917  0.573843  0.000000      0.003125
 -0.282698  0.565404  0.000000      0.003125
 -0.278478  0.556965  0.000000      0.003125
 -0.274259  0.548526  0.000000      0.003125
 -0.270039  0.540087  0.000000      0.003125
 -0.265820  0.531648  0.000000      0.003125
 -0.261601  0.523209  0.000000      0.003125
 -0.257381  0.514771  0.000000      0.003125
 -0.253162  0.506332  0.000000      0.003125
 -0.248943  0.497893  0.000000      0.003125
 -0.244723  0.489454  0.000000      0.003125
 -0.240504  0.481015  0.000000      0.003125
 -0.236285  0.472576  0.000000      0.003125
 -0.232065  0.464137  0.000000      0.003125
 -0.227846  0.455698  0.000000      0.003125
 -0.223626  0.447260  0.000000      0.003125
 -0.219407  0.438821  0.000000      0.003125
 -0.215188  0.430382  0.000000      0.003125
 -0.210968  0.421943  0.000000      0.003125
 -0.206749  0.413504  0.000000      0.003125
 -0.202530  0.405065  0.000000      0.003125
 -0.198310  0.396626  0.000000      0.003125
 -0.194091  0.388188  0.000000      0.003125
 -0.189872  0.379749  0.000000      0.003125
 -0.185652  0.371310  0.000000      0.003125
 -0.181433  0.362871  0.000000      0.003125
 -0.177213  0.354432  0.000000      0.003125
 -0.172994  0.345993  0.000000      0.003125
 -0.168775  0.337554  0.000000      0.003125
 -0.164555  0.329116  0.000000      0.003125
 -0.160336  0.320677  0.000000      0.003125
 -0.156117  0.312238  0.000000      0.003125
 -0.151897  0.303799  0.000000      0.003125
 -0.147678  0.295360  0.000000      0.003125
 -0.143458  0.286921  0.000000      0.003125
 -0.139239  0.278482  0.000000      0.003125
 -0.135020  0.270044  0.000000      0.003125
 -0.130800  0.261605  0.000000      0.003125
 -0.126581  0.253166  0.000000      0.003125
 -0.122362  0.244727  0.000000      0.003125
 -0.118142  0.236288  0.000000      0.003125
 -0.113923  0.227849  0.000000      0.003125
 -0.109704  0.219410  0.000000      0.003125
 -0.105484  0.210972  0.000000      0.003125
 -0.101265  0.202533  0.000000      0.003125
 -0.097045  0.194094  0.000000      0.003125
 -0.092826  0.185655  0.000000      0.003125
 -0.088607  0.177216  0.000000      0.003125
 -0.084387  0.168777  0.000000      0.003125
 -0.080168  0.160338  0.000000      0.003125
 -0.075949  0.151899  0.000000      0.003125
 -0.071729  0.143461  0.000000      0.003125
 -0.067510  0.135022  0.000000      0.003125
 -0.063291  0.126583  0.000000      0.003125
 -0.059071  0.118144  0.000000      0.003125
 -0.054852  0.109705  0.000000      0.003125
 -0.050632  0.101266  0.000000      0.003125
 -0.046413  0.092827  0.000000      0.003125
 -0.042194  0.084389  0.000000      0.003125
 -0.037974  0.075950  0.000000      0.003125
 -0.033755  0.067511  0.000000      0.003125
 -0.029536  0.059072  0.000000      0.003125
 -0.025316  0.050633  0.000000      0.003125
 -0.021097  0.042194  0.000000      0.003125
 -0.016877  0.033755  0.000000      0.003125
 -0.012658  0.025317  0.000000      0.003125
 -0.008439  0.016878  0.000000      0.003125
 -0.004219  0.008439  0.000000      0.003125
  0.000000  0.000000  0.000000      0.003125

 Following cartesian coordinates:
            Coordinates               Weight
  0.000000  0.173901  0.000000      0.003125
  0.000000  0.171699  0.000000      0.003125
  0.000000  0.169498  0.000000      0.003125
  0.000000  0.167297  0.000000      0.003125
  0.000000  0.165096  0.000000      0.003125
  0.000000  0.162894  0.000000      0.003125
  0.000000  0.160693  0.000000      0.003125
  0.000000  0.158492  0.000000      0.003125
  0.000000  0.156290  0.000000      0.003125
  0.000000  0.154089  0.000000      0.003125
  0.000000  0.151888  0.000000      0.003125
  0.000000  0.149687  0.000000      0.003125
  0.000000  0.147485  0.000000      0.003125
  0.000000  0.145284  0.000000      0.003125
  0.000000  0.143083  0.000000      0.003125
  0.000000  0.140882  0.000000      0.003125
  0.000000  0.138680  0.000000      0.003125
  0.000000  0.136479  0.000000      0.003125
  0.000000  0.134278  0.000000      0.003125
  0.000000  0.132076  0.000000      0.003125
  0.000000  0.129875  0.000000      0.003125
  0.000000  0.127674  0.000000      0.003125
  0.000000  0.125473  0.000000      0.003125
  0.000000  0.123271  0.000000      0.003125
  0.000000  0.121070  0.000000      0.003125
  0.000000  0.118869  0.000000      0.003125
  0.000000  0.116668  0.000000      0.003125
  0.000000  0.114466  0.000000      0.003125
  0.000000  0.112265  0.000000      0.003125
  0.000000  0.110064  0.000000      0.003125
  0.000000  0.107862  0.000000      0.003125
  0.000000  0.105661  0.000000      0.003125
  0.000000  0.103460  0.000000      0.003125
  0.000000  0.101259  0.000000      0.003125
  0.000000  0.099057  0.000000      0.003125
  0.000000  0.096856  0.000000      0.003125
  0.000000  0.094655  0.000000      0.003125
  0.000000  0.092454  0.000000      0.003125
  0.000000  0.090252  0.000000      0.003125
  0.000000  0.088051  0.000000      0.003125
  0.000000  0.085850  0.000000      0.003125
  0.000000  0.083648  0.000000      0.003125
  0.000000  0.081447  0.000000      0.003125
  0.000000  0.079246  0.000000      0.003125
  0.000000  0.077045  0.000000      0.003125
  0.000000  0.074843  0.000000      0.003125
  0.000000  0.072642  0.000000      0.003125
  0.000000  0.070441  0.000000      0.003125
  0.000000  0.068240  0.000000      0.003125
  0.000000  0.066038  0.000000      0.003125
  0.000000  0.063837  0.000000      0.003125
  0.000000  0.061636  0.000000      0.003125
  0.000000  0.059434  0.000000      0.003125
  0.000000  0.057233  0.000000      0.003125
  0.000000  0.055032  0.000000      0.003125
  0.000000  0.052831  0.000000      0.003125
  0.000000  0.050629  0.000000      0.003125
  0.000000  0.048428  0.000000      0.003125
  0.000000  0.046227  0.000000      0.003125
  0.000000  0.044025  0.000000      0.003125
  0.000000  0.041824  0.000000      0.003125
  0.000000  0.039623  0.000000      0.003125
  0.000000  0.037422  0.000000      0.003125
  0.000000  0.035220  0.000000      0.003125
  0.000000  0.033019  0.000000      0.003125
  0.000000  0.030818  0.000000      0.003125
  0.000000  0.028617  0.000000      0.003125
  0.000000  0.026415  0.000000      0.003125
  0.000000  0.024214  0.000000      0.003125
  0.000000  0.022013  0.000000      0.003125
  0.000000  0.019811  0.000000      0.003125
  0.000000  0.017610  0.000000      0.003125
  0.000000  0.015409  0.000000      0.003125
  0.000000  0.013208  0.000000      0.003125
  0.000000  0.011006  0.000000      0.003125
  0.000000  0.008805  0.000000      0.003125
  0.000000  0.006604  0.000000      0.003125
  0.000000  0.004403  0.000000      0.003125
  0.000000  0.002201  0.000000      0.003125
  0.000000  0.000000  0.000000      0.003125
  0.000000  0.000000  0.000000      0.003125
  0.001271  0.002201  0.000000      0.003125
  0.002542  0.004403  0.000000      0.003125
  0.003813  0.006604  0.000000      0.003125
  0.005084  0.008805  0.000000      0.003125
  0.006354  0.011006  0.000000      0.003125
  0.007625  0.013208  0.000000      0.003125
  0.008896  0.015409  0.000000      0.003125
  0.010167  0.017610  0.000000      0.003125
  0.011438  0.019811  0.000000      0.003125
  0.012709  0.022013  0.000000      0.003125
  0.013980  0.024214  0.000000      0.003125
  0.015251  0.026415  0.000000      0.003125
  0.016522  0.028616  0.000000      0.003125
  0.017793  0.030818  0.000000      0.003125
  0.019063  0.033019  0.000000      0.003125
  0.020334  0.035220  0.000000      0.003125
  0.021605  0.037421  0.000000      0.003125
  0.022876  0.039623  0.000000      0.003125
  0.024147  0.041824  0.000000      0.003125
  0.025418  0.044025  0.000000      0.003125
  0.026689  0.046226  0.000000      0.003125
  0.027960  0.048428  0.000000      0.003125
  0.029231  0.050629  0.000000      0.003125
  0.030501  0.052830  0.000000      0.003125
  0.031772  0.055031  0.000000      0.003125
  0.033043  0.057233  0.000000      0.003125
  0.034314  0.059434  0.000000      0.003125
  0.035585  0.061635  0.000000      0.003125
  0.036856  0.063836  0.000000      0.003125
  0.038127  0.066038  0.000000      0.003125
  0.039398  0.068239  0.000000      0.003125
  0.040669  0.070440  0.000000      0.003125
  0.041939  0.072641  0.000000      0.003125
  0.043210  0.074843  0.000000      0.003125
  0.044481  0.077044  0.000000      0.003125
  0.045752  0.079245  0.000000      0.003125
  0.047023  0.081446  0.000000      0.003125
  0.048294  0.083648  0.000000      0.003125
  0.049565  0.085849  0.000000      0.003125
  0.050836  0.088050  0.000000      0.003125
  0.052107  0.090251  0.000000      0.003125
  0.053378  0.092453  0.000000      0.003125
  0.054648  0.094654  0.000000      0.003125
  0.055919  0.096855  0.000000      0.003125
  0.057190  0.099056  0.000000      0.003125
  0.058461  0.101258  0.000000      0.003125
  0.059732  0.103459  0.000000      0.003125
  0.061003  0.105660  0.000000      0.003125
  0.062274  0.107861  0.000000      0.003125
  0.063545  0.110063  0.000000      0.003125
  0.064816  0.112264  0.000000      0.003125
  0.066086  0.114465  0.000000      0.003125
  0.067357  0.116666  0.000000      0.003125
  0.068628  0.118868  0.000000      0.003125
  0.069899  0.121069  0.000000      0.003125
  0.071170  0.123270  0.000000      0.003125
  0.072441  0.125471  0.000000      0.003125
  0.073712  0.127673  0.000000      0.003125
  0.074983  0.129874  0.000000      0.003125
  0.076254  0.132075  0.000000      0.003125
  0.077525  0.134276  0.000000      0.003125
  0.078795  0.136478  0.000000      0.003125
  0.080066  0.138679  0.000000      0.003125
  0.081337  0.140880  0.000000      0.003125
  0.082608  0.143081  0.000000      0.003125
  0.083879  0.145283  0.000000      0.003125
  0.085150  0.147484  0.000000      0.003125
  0.086421  0.149685  0.000000      0.003125
  0.087692  0.151886  0.000000      0.003125
  0.088963  0.154088  0.000000      0.003125
  0.090233  0.156289  0.000000      0.003125
  0.091504  0.158490  0.000000      0.003125
  0.092775  0.160691  0.000000      0.003125
  0.094046  0.162893  0.000000      0.003125
  0.095317  0.165094  0.000000      0.003125
  0.096588  0.167295  0.000000      0.003125
  0.097859  0.169496  0.000000      0.003125
  0.099130  0.171698  0.000000      0.003125
  0.100401  0.173899  0.000000      0.003125
  0.100401  0.173899  0.000000      0.003125
  0.097859  0.173899  0.000000      0.003125
  0.095317  0.173899  0.000000      0.003125
  0.092775  0.173899  0.000000      0.003125
  0.090233  0.173899  0.000000      0.003125
  0.087692  0.173899  0.000000      0.003125
  0.085150  0.173899  0.000000      0.003125
  0.082608  0.173899  0.000000      0.003125
  0.080066  0.173899  0.000000      0.003125
  0.077525  0.173899  0.000000      0.003125
  0.074983  0.173899  0.000000      0.003125
  0.072441  0.173899  0.000000      0.003125
  0.069899  0.173899  0.000000      0.003125
  0.067357  0.173900  0.000000      0.003125
  0.064816  0.173900  0.000000      0.003125
  0.062274  0.173900  0.000000      0.003125
  0.059732  0.173900  0.000000      0.003125
  0.057190  0.173900  0.000000      0.003125
  0.054648  0.173900  0.000000      0.003125
  0.052107  0.173900  0.000000      0.003125
  0.049565  0.173900  0.000000      0.003125
  0.047023  0.173900  0.000000      0.003125
  0.044481  0.173900  0.000000      0.003125
  0.041939  0.173900  0.000000      0.003125
  0.039398  0.173900  0.000000      0.003125
  0.036856  0.173900  0.000000      0.003125
  0.034314  0.173900  0.000000      0.003125
  0.031772  0.173900  0.000000      0.003125
  0.029231  0.173900  0.000000      0.003125
  0.026689  0.173900  0.000000      0.003125
  0.024147  0.173900  0.000000      0.003125
  0.021605  0.173900  0.000000      0.003125
  0.019063  0.173900  0.000000      0.003125
  0.016522  0.173900  0.000000      0.003125
  0.013980  0.173900  0.000000      0.003125
  0.011438  0.173900  0.000000      0.003125
  0.008896  0.173901  0.000000      0.003125
  0.006354  0.173901  0.000000      0.003125
  0.003813  0.173901  0.000000      0.003125
  0.001271  0.173901  0.000000      0.003125
 -0.001271  0.173901  0.000000      0.003125
 -0.003813  0.173901  0.000000      0.003125
 -0.006354  0.173901  0.000000      0.003125
 -0.008896  0.173901  0.000000      0.003125
 -0.011438  0.173901  0.000000      0.003125
 -0.013980  0.173901  0.000000      0.003125
 -0.016522  0.173901  0.000000      0.003125
 -0.019063  0.173901  0.000000      0.003125
 -0.021605  0.173901  0.000000      0.003125
 -0.024147  0.173901  0.000000      0.003125
 -0.026689  0.173901  0.000000      0.003125
 -0.029231  0.173901  0.000000      0.003125
 -0.031772  0.173901  0.000000      0.003125
 -0.034314  0.173901  0.000000      0.003125
 -0.036856  0.173901  0.000000      0.003125
 -0.039398  0.173901  0.000000      0.003125
 -0.041939  0.173901  0.000000      0.003125
 -0.044481  0.173901  0.000000      0.003125
 -0.047023  0.173901  0.000000      0.003125
 -0.049565  0.173902  0.000000      0.003125
 -0.052107  0.173902  0.000000      0.003125
 -0.054648  0.173902  0.000000      0.003125
 -0.057190  0.173902  0.000000      0.003125
 -0.059732  0.173902  0.000000      0.003125
 -0.062274  0.173902  0.000000      0.003125
 -0.064816  0.173902  0.000000      0.003125
 -0.067357  0.173902  0.000000      0.003125
 -0.069899  0.173902  0.000000      0.003125
 -0.072441  0.173902  0.000000      0.003125
 -0.074983  0.173902  0.000000      0.003125
 -0.077525  0.173902  0.000000      0.003125
 -0.080066  0.173902  0.000000      0.003125
 -0.082608  0.173902  0.000000      0.003125
 -0.085150  0.173902  0.000000      0.003125
 -0.087692  0.173902  0.000000      0.003125
 -0.090233  0.173902  0.000000      0.003125
 -0.092775  0.173902  0.000000      0.003125
 -0.095317  0.173902  0.000000      0.003125
 -0.097859  0.173902  0.000000      0.003125
 -0.100401  0.173902  0.000000      0.003125
 -0.100401  0.173902  0.000000      0.003125
 -0.099130  0.171701  0.000000      0.003125
 -0.097859  0.169500  0.000000      0.003125
 -0.096588  0.167299  0.000000      0.003125
 -0.095317  0.165097  0.000000      0.003125
 -0.094046  0.162896  0.000000      0.003125
 -0.092775  0.160695  0.000000      0.003125
 -0.091504  0.158493  0.000000      0.003125
 -0.090233  0.156292  0.000000      0.003125
 -0.088963  0.154091  0.000000      0.003125
 -0.087692  0.151889  0.000000      0.003125
 -0.086421  0.149688  0.000000      0.003125
 -0.085150  0.147487  0.000000      0.003125
 -0.083879  0.145286  0.000000      0.003125
 -0.082608  0.143084  0.000000      0.003125
 -0.081337  0.140883  0.000000      0.003125
 -0.080066  0.138682  0.000000      0.003125
 -0.078795  0.136480  0.000000      0.003125
 -0.077525  0.134279  0.000000      0.003125
 -0.076254  0.132078  0.000000      0.003125
 -0.074983  0.129876  0.000000      0.003125
 -0.073712  0.127675  0.000000      0.003125
 -0.072441  0.125474  0.000000      0.003125
 -0.071170  0.123273  0.000000      0.003125
 -0.069899  0.121071  0.000000      0.003125
 -0.068628  0.118870  0.000000      0.003125
 -0.067357  0.116669  0.000000      0.003125
 -0.066086  0.114467  0.000000      0.003125
 -0.064816  0.112266  0.000000      0.003125
 -0.063545  0.110065  0.000000      0.003125
 -0.062274  0.107864  0.000000      0.003125
 -0.061003  0.105662  0.000000      0.003125
 -0.059732  0.103461  0.000000      0.003125
 -0.058461  0.101260  0.000000      0.003125
 -0.057190  0.099058  0.000000      0.003125
 -0.055919  0.096857  0.000000      0.003125
 -0.054648  0.094656  0.000000      0.003125
 -0.053378  0.092454  0.000000      0.003125
 -0.052107  0.090253  0.000000      0.003125
 -0.050836  0.088052  0.000000      0.003125
 -0.049565  0.085851  0.000000      0.003125
 -0.048294  0.083649  0.000000      0.003125
 -0.047023  0.081448  0.000000      0.003125
 -0.045752  0.079247  0.000000      0.003125
 -0.044481  0.077045  0.000000      0.003125
 -0.043210  0.074844  0.000000      0.003125
 -0.041939  0.072643  0.000000      0.003125
 -0.040669  0.070441  0.000000      0.003125
 -0.039398  0.068240  0.000000      0.003125
 -0.038127  0.066039  0.000000      0.003125
 -0.036856  0.063838  0.000000      0.003125
 -0.035585  0.061636  0.000000      0.003125
 -0.034314  0.059435  0.000000      0.003125
 -0.033043  0.057234  0.000000      0.003125
 -0.031772  0.055032  0.000000      0.003125
 -0.030501  0.052831  0.000000      0.003125
 -0.029231  0.050630  0.000000      0.003125
 -0.027960  0.048429  0.000000      0.003125
 -0.026689  0.046227  0.000000      0.003125
 -0.025418  0.044026  0.000000      0.003125
 -0.024147  0.041825  0.000000      0.003125
 -0.022876  0.039623  0.000000      0.003125
 -0.021605  0.037422  0.000000      0.003125
 -0.020334  0.035221  0.000000      0.003125
 -0.019063  0.033019  0.000000      0.003125
 -0.017793  0.030818  0.000000      0.003125
 -0.016522  0.028617  0.000000      0.003125
 -0.015251  0.026416  0.000000      0.003125
 -0.013980  0.024214  0.000000      0.003125
 -0.012709  0.022013  0.000000      0.003125
 -0.011438  0.019812  0.000000      0.003125
 -0.010167  0.017610  0.000000      0.003125
 -0.008896  0.015409  0.000000      0.003125
 -0.007625  0.013208  0.000000      0.003125
 -0.006354  0.011006  0.000000      0.003125
 -0.005084  0.008805  0.000000      0.003125
 -0.003813  0.006604  0.000000      0.003125
 -0.002542  0.004403  0.000000      0.003125
 -0.001271  0.002201  0.000000      0.003125
  0.000000  0.000000  0.000000      0.003125
 


--------------------------------------------------------------------------------------------------------




 Dimension of arrays:
   k-points           NKPTS =    320   k-points in BZ     NKDIM =    320   number of bands    NBANDS=     32
   number of dos      NEDOS =    301   number of ions     NIONS =      3
   non local maximal  LDIM  =      6   non local SUM 2l+1 LMDIM =     18
   total plane-waves  NPLWV =  20480
   max r-space proj   IRMAX =      1   max aug-charges    IRDMAX=   9382
   dimension x,y,z NGX =    16 NGY =   16 NGZ =   80
   dimension x,y,z NGXF=    32 NGYF=   32 NGZF=  160
   support grid    NGXF=    32 NGYF=   32 NGZF=  160
   ions per type =               1   2
   NGX,Y,Z   is equivalent  to a cutoff of   8.01,  8.01,  8.87 a.u.
   NGXF,Y,Z  is equivalent  to a cutoff of  16.02, 16.02, 17.73 a.u.

 SYSTEM =  MoSe2                                   
 POSCAR =  Mo  S                                   

 Startparameter for this run:
   NWRITE =      1    write-flag & timer
   PREC   = accura    normal or accurate (medium, high low for compatibility)
   ISTART =      0    job   : 0-new  1-cont  2-samecut
   ICHARG =     11    charge: 1-file 2-atom 10-const
   ISPIN  =      1    spin polarized calculation?
   LNONCOLLINEAR =      T non collinear calculations
   LSORBIT =      T    spin-orbit coupling
   INIWAV =      1    electr: 0-lowe 1-rand  2-diag
   LASPH  =      F    aspherical Exc in radial PAW
 Electronic Relaxation 1
   ENCUT  =  224.6 eV  16.51 Ry    4.06 a.u.   4.06  4.06 18.33*2*pi/ulx,y,z
   ENINI  =  224.6     initial cutoff
   ENAUG  =  446.8 eV  augmentation charge cutoff
   NELM   =    200;   NELMIN=  4; NELMDL= -5     # of ELM steps 
   EDIFF  = 0.1E-05   stopping-criterion for ELM
   LREAL  =      F    real-space projection
   NLSPLINE    = F    spline interpolate recip. space projectors
   LCOMPAT=      F    compatible to vasp.4.4
   GGA_COMPAT  = T    GGA compatible to vasp.4.4-vasp.4.6
   LMAXPAW     = -100 max onsite density
   LMAXMIX     =    2 max onsite mixed and CHGCAR
   VOSKOWN=      0    Vosko Wilk Nusair interpolation
   ROPT   =    0.00000   0.00000
 Ionic relaxation
   EDIFFG = 0.1E-04   stopping-criterion for IOM
   NSW    =      0    number of steps for IOM
   NBLOCK =      1;   KBLOCK =      1    inner block; outer block 
   IBRION =     -1    ionic relax: 0-MD 1-quasi-New 2-CG
   NFREE  =      0    steps in history (QN), initial steepest desc. (CG)
   ISIF   =      2    stress and relaxation
   IWAVPR =     10    prediction:  0-non 1-charg 2-wave 3-comb
   ISYM   =      2    0-nonsym 1-usesym 2-fastsym
   LCORR  =      T    Harris-Foulkes like correction to forces

   POTIM  = 0.5000    time-step for ionic-motion
   TEIN   =    0.0    initial temperature
   TEBEG  =    0.0;   TEEND  =   0.0 temperature during run
   SMASS  =  -3.00    Nose mass-parameter (am)
   estimated Nose-frequenzy (Omega)   =  0.10E-29 period in steps = 0.13E+47 mass=  -0.252E-27a.u.
   SCALEE = 1.0000    scale energy and forces
   NPACO  =    256;   APACO  = 10.0  distance and # of slots for P.C.
   PSTRESS=    0.0 pullay stress

  Mass of Ions in am
   POMASS =  95.94 78.96
  Ionic Valenz
   ZVAL   =   6.00  6.00
  Atomic Wigner-Seitz radii
   RWIGS  =  -1.00 -1.00
  virtual crystal weights 
   VCA    =   1.00  1.00
   NELECT =      18.0000    total number of electrons
   NUPDOWN=      -1.0000    fix difference up-down

 DOS related values:
   EMIN   =  10.00;   EMAX   =-10.00  energy-range for DOS
   EFERMI =   0.00
   ISMEAR =     0;   SIGMA  =   0.10  broadening in eV -4-tet -1-fermi 0-gaus

 Electronic relaxation 2 (details)
   IALGO  =     38    algorithm
   LDIAG  =      T    sub-space diagonalisation (order eigenvalues)
   LSUBROT=      F    optimize rotation matrix (better conditioning)
   TURBO    =      0    0=normal 1=particle mesh
   IRESTART =      0    0=no restart 2=restart with 2 vectors
   NREBOOT  =      0    no. of reboots
   NMIN     =      0    reboot dimension
   EREF     =   0.00    reference energy to select bands
   IMIX   =      4    mixing-type and parameters
     AMIX     =   0.40;   BMIX     =  1.00
     AMIX_MAG =   1.60;   BMIX_MAG =  1.00
     AMIN     =   0.10
     WC   =   100.;   INIMIX=   1;  MIXPRE=   1;  MAXMIX= -45

 Intra band minimization:
   WEIMIN = 0.0000     energy-eigenvalue tresh-hold
   EBREAK =  0.78E-08  absolut break condition
   DEPER  =   0.30     relativ break condition  

   TIME   =   0.40     timestep for ELM

  volume/ion in A,a.u.               =      47.73       322.09
  Fermi-wavevector in a.u.,A,eV,Ry     =   0.820099  1.549763  9.150768  0.672562
  Thomas-Fermi vector in A             =   1.931021
 
 Write flags
   LWAVE        =      T    write WAVECAR
   LDOWNSAMPLE  =      F    k-point downsampling of WAVECAR
   LCHARG       =      F    write CHGCAR
   LVTOT        =      F    write LOCPOT, total local potential
   LVHAR        =      F    write LOCPOT, Hartree potential only
   LELF         =      F    write electronic localiz. function (ELF)
   LORBIT       =     11    0 simple, 1 ext, 2 COOP (PROOUT), +10 PAW based schemes


 Dipole corrections
   LMONO  =      F    monopole corrections only (constant potential shift)
   LDIPOL =      F    correct potential (dipole corrections)
   IDIPOL =      0    1-x, 2-y, 3-z, 4-all directions 
   EPSILON=  1.0000000 bulk dielectric constant

 Exchange correlation treatment:
   GGA     =    --    GGA type
   LEXCH   =     8    internal setting for exchange type
   LIBXC   =     F    Libxc                    
   VOSKOWN =     0    Vosko Wilk Nusair interpolation
   LHFCALC =     F    Hartree Fock is set to
   LHFONE  =     F    Hartree Fock one center treatment
   AEXX    =    0.0000 exact exchange contribution

 Linear response parameters
   LEPSILON=     F    determine dielectric tensor
   LRPA    =     F    only Hartree local field effects (RPA)
   LNABLA  =     F    use nabla operator in PAW spheres
   LVEL    =     F    velocity operator in full k-point grid
   CSHIFT  =0.1000    complex shift for real part using Kramers Kronig
   OMEGAMAX=  -1.0    maximum frequency
   DEG_THRESHOLD= 0.2000000E-02 threshold for treating states as degnerate
   RTIME   =   -0.100 relaxation time in fs
  (WPLASMAI=    0.000 imaginary part of plasma frequency in eV, 0.658/RTIME)
   DFIELD  = 0.0000000 0.0000000 0.0000000 field for delta impulse in time
 
  Optional k-point grid parameters
   LKPOINTS_OPT  =     F    use optional k-point grid
   KPOINTS_OPT_MODE=     1    mode for optional k-point grid
 
 Orbital magnetization related:
   ORBITALMAG=     F  switch on orbital magnetization
   LCHIMAG   =     F  perturbation theory with respect to B field
   DQ        =  0.001000  dq finite difference perturbation B field
   LLRAUG    =     F  two centre corrections for induced B field



--------------------------------------------------------------------------------------------------------


 Static calculation
 charge density and potential remain constant during run
 non collinear spin polarized calculation
 Variant of blocked Davidson
 Davidson routine will perform the subspace rotation
 perform sub-space diagonalisation
    after iterative eigenvector-optimisation
 no mixing
 using additional bands           23
 reciprocal scheme for non local part
 use partial core corrections
 calculate Harris-corrections to forces 
   (improved forces if not selfconsistent)
 use gradient corrections 
 WARNING: stress and forces are not correct
  (second derivative of E(xc) not defined)
 use of overlap-Matrix (Vanderbilt PP)
 Gauss-broadening in eV      SIGMA  =   0.10


--------------------------------------------------------------------------------------------------------


  energy-cutoff  :      224.58
  volume of cell :      143.19
      direct lattice vectors                 reciprocal lattice vectors
     3.320000000  0.000000000  0.000000000     0.301204819  0.173900683  0.000000000
    -1.660000000  2.875204341  0.000000000     0.000000000  0.347801367  0.000000000
     0.000000000  0.000000000 15.000000000     0.000000000  0.000000000  0.066666667

  length of vectors
     3.320000000  3.320000000 15.000000000     0.347801367  0.347801367  0.066666667


 
 k-points in units of 2pi/SCALE and weight: dummy                                   
   0.00000000  0.17390068  0.00000000       0.003
   0.00000000  0.17169941  0.00000000       0.003
   0.00000000  0.16949813  0.00000000       0.003
   0.00000000  0.16729686  0.00000000       0.003
   0.00000000  0.16509559  0.00000000       0.003
   0.00000000  0.16289431  0.00000000       0.003
   0.00000000  0.16069304  0.00000000       0.003
   0.00000000  0.15849176  0.00000000       0.003
   0.00000000  0.15629049  0.00000000       0.003
   0.00000000  0.15408921  0.00000000       0.003
   0.00000000  0.15188794  0.00000000       0.003
   0.00000000  0.14968666  0.00000000       0.003
   0.00000000  0.14748539  0.00000000       0.003
   0.00000000  0.14528412  0.00000000       0.003
   0.00000000  0.14308284  0.00000000       0.003
   0.00000000  0.14088157  0.00000000       0.003
   0.00000000  0.13868029  0.00000000       0.003
   0.00000000  0.13647902  0.00000000       0.003
   0.00000000  0.13427774  0.00000000       0.003
   0.00000000  0.13207647  0.00000000       0.003
   0.00000000  0.12987519  0.00000000       0.003
   0.00000000  0.12767392  0.00000000       0.003
   0.00000000  0.12547265  0.00000000       0.003
   0.00000000  0.12327137  0.00000000       0.003
   0.00000000  0.12107010  0.00000000       0.003
   0.00000000  0.11886882  0.00000000       0.003
   0.00000000  0.11666755  0.00000000       0.003
   0.00000000  0.11446627  0.00000000       0.003
   0.00000000  0.11226500  0.00000000       0.003
   0.00000000  0.11006372  0.00000000       0.003
   0.00000000  0.10786245  0.00000000       0.003
   0.00000000  0.10566117  0.00000000       0.003
   0.00000000  0.10345990  0.00000000       0.003
   0.00000000  0.10125863  0.00000000       0.003
   0.00000000  0.09905735  0.00000000       0.003
   0.00000000  0.09685608  0.00000000       0.003
   0.00000000  0.09465480  0.00000000       0.003
   0.00000000  0.09245353  0.00000000       0.003
   0.00000000  0.09025225  0.00000000       0.003
   0.00000000  0.08805098  0.00000000       0.003
   0.00000000  0.08584970  0.00000000       0.003
   0.00000000  0.08364843  0.00000000       0.003
   0.00000000  0.08144716  0.00000000       0.003
   0.00000000  0.07924588  0.00000000       0.003
   0.00000000  0.07704461  0.00000000       0.003
   0.00000000  0.07484333  0.00000000       0.003
   0.00000000  0.07264206  0.00000000       0.003
   0.00000000  0.07044078  0.00000000       0.003
   0.00000000  0.06823951  0.00000000       0.003
   0.00000000  0.06603823  0.00000000       0.003
   0.00000000  0.06383696  0.00000000       0.003
   0.00000000  0.06163569  0.00000000       0.003
   0.00000000  0.05943441  0.00000000       0.003
   0.00000000  0.05723314  0.00000000       0.003
   0.00000000  0.05503186  0.00000000       0.003
   0.00000000  0.05283059  0.00000000       0.003
   0.00000000  0.05062931  0.00000000       0.003
   0.00000000  0.04842804  0.00000000       0.003
   0.00000000  0.04622676  0.00000000       0.003
   0.00000000  0.04402549  0.00000000       0.003
   0.00000000  0.04182422  0.00000000       0.003
   0.00000000  0.03962294  0.00000000       0.003
   0.00000000  0.03742167  0.00000000       0.003
   0.00000000  0.03522039  0.00000000       0.003
   0.00000000  0.03301912  0.00000000       0.003
   0.00000000  0.03081784  0.00000000       0.003
   0.00000000  0.02861657  0.00000000       0.003
   0.00000000  0.02641529  0.00000000       0.003
   0.00000000  0.02421402  0.00000000       0.003
   0.00000000  0.02201274  0.00000000       0.003
   0.00000000  0.01981147  0.00000000       0.003
   0.00000000  0.01761020  0.00000000       0.003
   0.00000000  0.01540892  0.00000000       0.003
   0.00000000  0.01320765  0.00000000       0.003
   0.00000000  0.01100637  0.00000000       0.003
   0.00000000  0.00880510  0.00000000       0.003
   0.00000000  0.00660382  0.00000000       0.003
   0.00000000  0.00440255  0.00000000       0.003
   0.00000000  0.00220127  0.00000000       0.003
   0.00000000  0.00000000  0.00000000       0.003
   0.00000000  0.00000000  0.00000000       0.003
   0.00127089  0.00220125  0.00000000       0.003
   0.00254179  0.00440250  0.00000000       0.003
   0.00381268  0.00660376  0.00000000       0.003
   0.00508357  0.00880501  0.00000000       0.003
   0.00635447  0.01100626  0.00000000       0.003
   0.00762536  0.01320751  0.00000000       0.003
   0.00889626  0.01540877  0.00000000       0.003
   0.01016715  0.01761002  0.00000000       0.003
   0.01143804  0.01981127  0.00000000       0.003
   0.01270894  0.02201252  0.00000000       0.003
   0.01397983  0.02421378  0.00000000       0.003
   0.01525072  0.02641503  0.00000000       0.003
   0.01652162  0.02861628  0.00000000       0.003
   0.01779251  0.03081753  0.00000000       0.003
   0.01906341  0.03301879  0.00000000       0.003
   0.02033430  0.03522004  0.00000000       0.003
   0.02160519  0.03742129  0.00000000       0.003
   0.02287609  0.03962254  0.00000000       0.003
   0.02414698  0.04182380  0.00000000       0.003
   0.02541787  0.04402505  0.00000000       0.003
   0.02668877  0.04622630  0.00000000       0.003
   0.02795966  0.04842755  0.00000000       0.003
   0.02923056  0.05062881  0.00000000       0.003
   0.03050145  0.05283006  0.00000000       0.003
   0.03177234  0.05503131  0.00000000       0.003
   0.03304324  0.05723256  0.00000000       0.003
   0.03431413  0.05943382  0.00000000       0.003
   0.03558502  0.06163507  0.00000000       0.003
   0.03685592  0.06383632  0.00000000       0.003
   0.03812681  0.06603757  0.00000000       0.003
   0.03939770  0.06823883  0.00000000       0.003
   0.04066860  0.07044008  0.00000000       0.003
   0.04193949  0.07264133  0.00000000       0.003
   0.04321039  0.07484258  0.00000000       0.003
   0.04448128  0.07704384  0.00000000       0.003
   0.04575217  0.07924509  0.00000000       0.003
   0.04702307  0.08144634  0.00000000       0.003
   0.04829396  0.08364759  0.00000000       0.003
   0.04956485  0.08584885  0.00000000       0.003
   0.05083575  0.08805010  0.00000000       0.003
   0.05210664  0.09025135  0.00000000       0.003
   0.05337754  0.09245260  0.00000000       0.003
   0.05464843  0.09465386  0.00000000       0.003
   0.05591932  0.09685511  0.00000000       0.003
   0.05719022  0.09905636  0.00000000       0.003
   0.05846111  0.10125761  0.00000000       0.003
   0.05973200  0.10345887  0.00000000       0.003
   0.06100290  0.10566012  0.00000000       0.003
   0.06227379  0.10786137  0.00000000       0.003
   0.06354469  0.11006262  0.00000000       0.003
   0.06481558  0.11226388  0.00000000       0.003
   0.06608647  0.11446513  0.00000000       0.003
   0.06735737  0.11666638  0.00000000       0.003
   0.06862826  0.11886763  0.00000000       0.003
   0.06989915  0.12106889  0.00000000       0.003
   0.07117005  0.12327014  0.00000000       0.003
   0.07244094  0.12547139  0.00000000       0.003
   0.07371183  0.12767264  0.00000000       0.003
   0.07498273  0.12987390  0.00000000       0.003
   0.07625362  0.13207515  0.00000000       0.003
   0.07752452  0.13427640  0.00000000       0.003
   0.07879541  0.13647765  0.00000000       0.003
   0.08006630  0.13867891  0.00000000       0.003
   0.08133720  0.14088016  0.00000000       0.003
   0.08260809  0.14308141  0.00000000       0.003
   0.08387898  0.14528266  0.00000000       0.003
   0.08514988  0.14748391  0.00000000       0.003
   0.08642077  0.14968517  0.00000000       0.003
   0.08769167  0.15188642  0.00000000       0.003
   0.08896256  0.15408767  0.00000000       0.003
   0.09023345  0.15628892  0.00000000       0.003
   0.09150435  0.15849018  0.00000000       0.003
   0.09277524  0.16069143  0.00000000       0.003
   0.09404613  0.16289268  0.00000000       0.003
   0.09531703  0.16509393  0.00000000       0.003
   0.09658792  0.16729519  0.00000000       0.003
   0.09785882  0.16949644  0.00000000       0.003
   0.09912971  0.17169769  0.00000000       0.003
   0.10040060  0.17389894  0.00000000       0.003
   0.10040060  0.17389894  0.00000000       0.003
   0.09785882  0.17389899  0.00000000       0.003
   0.09531703  0.17389903  0.00000000       0.003
   0.09277524  0.17389908  0.00000000       0.003
   0.09023345  0.17389912  0.00000000       0.003
   0.08769167  0.17389916  0.00000000       0.003
   0.08514988  0.17389921  0.00000000       0.003
   0.08260809  0.17389925  0.00000000       0.003
   0.08006630  0.17389930  0.00000000       0.003
   0.07752452  0.17389934  0.00000000       0.003
   0.07498273  0.17389938  0.00000000       0.003
   0.07244094  0.17389943  0.00000000       0.003
   0.06989915  0.17389947  0.00000000       0.003
   0.06735737  0.17389952  0.00000000       0.003
   0.06481558  0.17389956  0.00000000       0.003
   0.06227379  0.17389960  0.00000000       0.003
   0.05973200  0.17389965  0.00000000       0.003
   0.05719022  0.17389969  0.00000000       0.003
   0.05464843  0.17389974  0.00000000       0.003
   0.05210664  0.17389978  0.00000000       0.003
   0.04956485  0.17389982  0.00000000       0.003
   0.04702307  0.17389987  0.00000000       0.003
   0.04448128  0.17389991  0.00000000       0.003
   0.04193949  0.17389996  0.00000000       0.003
   0.03939770  0.17390000  0.00000000       0.003
   0.03685592  0.17390005  0.00000000       0.003
   0.03431413  0.17390009  0.00000000       0.003
   0.03177234  0.17390013  0.00000000       0.003
   0.02923056  0.17390018  0.00000000       0.003
   0.02668877  0.17390022  0.00000000       0.003
   0.02414698  0.17390027  0.00000000       0.003
   0.02160519  0.17390031  0.00000000       0.003
   0.01906341  0.17390035  0.00000000       0.003
   0.01652162  0.17390040  0.00000000       0.003
   0.01397983  0.17390044  0.00000000       0.003
   0.01143804  0.17390049  0.00000000       0.003
   0.00889626  0.17390053  0.00000000       0.003
   0.00635447  0.17390057  0.00000000       0.003
   0.00381268  0.17390062  0.00000000       0.003
   0.00127089  0.17390066  0.00000000       0.003
  -0.00127089  0.17390071  0.00000000       0.003
  -0.00381268  0.17390075  0.00000000       0.003
  -0.00635447  0.17390079  0.00000000       0.003
  -0.00889626  0.17390084  0.00000000       0.003
  -0.01143804  0.17390088  0.00000000       0.003
  -0.01397983  0.17390093  0.00000000       0.003
  -0.01652162  0.17390097  0.00000000       0.003
  -0.01906341  0.17390101  0.00000000       0.003
  -0.02160519  0.17390106  0.00000000       0.003
  -0.02414698  0.17390110  0.00000000       0.003
  -0.02668877  0.17390115  0.00000000       0.003
  -0.02923056  0.17390119  0.00000000       0.003
  -0.03177234  0.17390123  0.00000000       0.003
  -0.03431413  0.17390128  0.00000000       0.003
  -0.03685592  0.17390132  0.00000000       0.003
  -0.03939770  0.17390137  0.00000000       0.003
  -0.04193949  0.17390141  0.00000000       0.003
  -0.04448128  0.17390145  0.00000000       0.003
  -0.04702307  0.17390150  0.00000000       0.003
  -0.04956485  0.17390154  0.00000000       0.003
  -0.05210664  0.17390159  0.00000000       0.003
  -0.05464843  0.17390163  0.00000000       0.003
  -0.05719022  0.17390167  0.00000000       0.003
  -0.05973200  0.17390172  0.00000000       0.003
  -0.06227379  0.17390176  0.00000000       0.003
  -0.06481558  0.17390181  0.00000000       0.003
  -0.06735737  0.17390185  0.00000000       0.003
  -0.06989915  0.17390189  0.00000000       0.003
  -0.07244094  0.17390194  0.00000000       0.003
  -0.07498273  0.17390198  0.00000000       0.003
  -0.07752452  0.17390203  0.00000000       0.003
  -0.08006630  0.17390207  0.00000000       0.003
  -0.08260809  0.17390211  0.00000000       0.003
  -0.08514988  0.17390216  0.00000000       0.003
  -0.08769167  0.17390220  0.00000000       0.003
  -0.09023345  0.17390225  0.00000000       0.003
  -0.09277524  0.17390229  0.00000000       0.003
  -0.09531703  0.17390233  0.00000000       0.003
  -0.09785882  0.17390238  0.00000000       0.003
  -0.10040060  0.17390242  0.00000000       0.003
  -0.10040060  0.17390242  0.00000000       0.003
  -0.09912971  0.17170113  0.00000000       0.003
  -0.09785882  0.16949983  0.00000000       0.003
  -0.09658792  0.16729853  0.00000000       0.003
  -0.09531703  0.16509724  0.00000000       0.003
  -0.09404613  0.16289594  0.00000000       0.003
  -0.09277524  0.16069464  0.00000000       0.003
  -0.09150435  0.15849335  0.00000000       0.003
  -0.09023345  0.15629205  0.00000000       0.003
  -0.08896256  0.15409075  0.00000000       0.003
  -0.08769167  0.15188946  0.00000000       0.003
  -0.08642077  0.14968816  0.00000000       0.003
  -0.08514988  0.14748686  0.00000000       0.003
  -0.08387898  0.14528557  0.00000000       0.003
  -0.08260809  0.14308427  0.00000000       0.003
  -0.08133720  0.14088298  0.00000000       0.003
  -0.08006630  0.13868168  0.00000000       0.003
  -0.07879541  0.13648038  0.00000000       0.003
  -0.07752452  0.13427909  0.00000000       0.003
  -0.07625362  0.13207779  0.00000000       0.003
  -0.07498273  0.12987649  0.00000000       0.003
  -0.07371183  0.12767520  0.00000000       0.003
  -0.07244094  0.12547390  0.00000000       0.003
  -0.07117005  0.12327260  0.00000000       0.003
  -0.06989915  0.12107131  0.00000000       0.003
  -0.06862826  0.11887001  0.00000000       0.003
  -0.06735737  0.11666871  0.00000000       0.003
  -0.06608647  0.11446742  0.00000000       0.003
  -0.06481558  0.11226612  0.00000000       0.003
  -0.06354469  0.11006482  0.00000000       0.003
  -0.06227379  0.10786353  0.00000000       0.003
  -0.06100290  0.10566223  0.00000000       0.003
  -0.05973200  0.10346093  0.00000000       0.003
  -0.05846111  0.10125964  0.00000000       0.003
  -0.05719022  0.09905834  0.00000000       0.003
  -0.05591932  0.09685705  0.00000000       0.003
  -0.05464843  0.09465575  0.00000000       0.003
  -0.05337754  0.09245445  0.00000000       0.003
  -0.05210664  0.09025316  0.00000000       0.003
  -0.05083575  0.08805186  0.00000000       0.003
  -0.04956485  0.08585056  0.00000000       0.003
  -0.04829396  0.08364927  0.00000000       0.003
  -0.04702307  0.08144797  0.00000000       0.003
  -0.04575217  0.07924667  0.00000000       0.003
  -0.04448128  0.07704538  0.00000000       0.003
  -0.04321039  0.07484408  0.00000000       0.003
  -0.04193949  0.07264278  0.00000000       0.003
  -0.04066860  0.07044149  0.00000000       0.003
  -0.03939770  0.06824019  0.00000000       0.003
  -0.03812681  0.06603889  0.00000000       0.003
  -0.03685592  0.06383760  0.00000000       0.003
  -0.03558502  0.06163630  0.00000000       0.003
  -0.03431413  0.05943501  0.00000000       0.003
  -0.03304324  0.05723371  0.00000000       0.003
  -0.03177234  0.05503241  0.00000000       0.003
  -0.03050145  0.05283112  0.00000000       0.003
  -0.02923056  0.05062982  0.00000000       0.003
  -0.02795966  0.04842852  0.00000000       0.003
  -0.02668877  0.04622723  0.00000000       0.003
  -0.02541787  0.04402593  0.00000000       0.003
  -0.02414698  0.04182463  0.00000000       0.003
  -0.02287609  0.03962334  0.00000000       0.003
  -0.02160519  0.03742204  0.00000000       0.003
  -0.02033430  0.03522074  0.00000000       0.003
  -0.01906341  0.03301945  0.00000000       0.003
  -0.01779251  0.03081815  0.00000000       0.003
  -0.01652162  0.02861685  0.00000000       0.003
  -0.01525072  0.02641556  0.00000000       0.003
  -0.01397983  0.02421426  0.00000000       0.003
  -0.01270894  0.02201296  0.00000000       0.003
  -0.01143804  0.01981167  0.00000000       0.003
  -0.01016715  0.01761037  0.00000000       0.003
  -0.00889626  0.01540908  0.00000000       0.003
  -0.00762536  0.01320778  0.00000000       0.003
  -0.00635447  0.01100648  0.00000000       0.003
  -0.00508357  0.00880519  0.00000000       0.003
  -0.00381268  0.00660389  0.00000000       0.003
  -0.00254179  0.00440259  0.00000000       0.003
  -0.00127089  0.00220130  0.00000000       0.003
   0.00000000  0.00000000  0.00000000       0.003
 
 k-points in reciprocal lattice and weights: dummy                                   
   0.00000000  0.50000000  0.00000000       0.003
   0.00000000  0.49367089  0.00000000       0.003
   0.00000000  0.48734177  0.00000000       0.003
   0.00000000  0.48101266  0.00000000       0.003
   0.00000000  0.47468354  0.00000000       0.003
   0.00000000  0.46835443  0.00000000       0.003
   0.00000000  0.46202532  0.00000000       0.003
   0.00000000  0.45569620  0.00000000       0.003
   0.00000000  0.44936709  0.00000000       0.003
   0.00000000  0.44303797  0.00000000       0.003
   0.00000000  0.43670886  0.00000000       0.003
   0.00000000  0.43037975  0.00000000       0.003
   0.00000000  0.42405063  0.00000000       0.003
   0.00000000  0.41772152  0.00000000       0.003
   0.00000000  0.41139241  0.00000000       0.003
   0.00000000  0.40506329  0.00000000       0.003
   0.00000000  0.39873418  0.00000000       0.003
   0.00000000  0.39240506  0.00000000       0.003
   0.00000000  0.38607595  0.00000000       0.003
   0.00000000  0.37974684  0.00000000       0.003
   0.00000000  0.37341772  0.00000000       0.003
   0.00000000  0.36708861  0.00000000       0.003
   0.00000000  0.36075949  0.00000000       0.003
   0.00000000  0.35443038  0.00000000       0.003
   0.00000000  0.34810127  0.00000000       0.003
   0.00000000  0.34177215  0.00000000       0.003
   0.00000000  0.33544304  0.00000000       0.003
   0.00000000  0.32911392  0.00000000       0.003
   0.00000000  0.32278481  0.00000000       0.003
   0.00000000  0.31645570  0.00000000       0.003
   0.00000000  0.31012658  0.00000000       0.003
   0.00000000  0.30379747  0.00000000       0.003
   0.00000000  0.29746835  0.00000000       0.003
   0.00000000  0.29113924  0.00000000       0.003
   0.00000000  0.28481013  0.00000000       0.003
   0.00000000  0.27848101  0.00000000       0.003
   0.00000000  0.27215190  0.00000000       0.003
   0.00000000  0.26582278  0.00000000       0.003
   0.00000000  0.25949367  0.00000000       0.003
   0.00000000  0.25316456  0.00000000       0.003
   0.00000000  0.24683544  0.00000000       0.003
   0.00000000  0.24050633  0.00000000       0.003
   0.00000000  0.23417722  0.00000000       0.003
   0.00000000  0.22784810  0.00000000       0.003
   0.00000000  0.22151899  0.00000000       0.003
   0.00000000  0.21518987  0.00000000       0.003
   0.00000000  0.20886076  0.00000000       0.003
   0.00000000  0.20253165  0.00000000       0.003
   0.00000000  0.19620253  0.00000000       0.003
   0.00000000  0.18987342  0.00000000       0.003
   0.00000000  0.18354430  0.00000000       0.003
   0.00000000  0.17721519  0.00000000       0.003
   0.00000000  0.17088608  0.00000000       0.003
   0.00000000  0.16455696  0.00000000       0.003
   0.00000000  0.15822785  0.00000000       0.003
   0.00000000  0.15189873  0.00000000       0.003
   0.00000000  0.14556962  0.00000000       0.003
   0.00000000  0.13924051  0.00000000       0.003
   0.00000000  0.13291139  0.00000000       0.003
   0.00000000  0.12658228  0.00000000       0.003
   0.00000000  0.12025316  0.00000000       0.003
   0.00000000  0.11392405  0.00000000       0.003
   0.00000000  0.10759494  0.00000000       0.003
   0.00000000  0.10126582  0.00000000       0.003
   0.00000000  0.09493671  0.00000000       0.003
   0.00000000  0.08860759  0.00000000       0.003
   0.00000000  0.08227848  0.00000000       0.003
   0.00000000  0.07594937  0.00000000       0.003
   0.00000000  0.06962025  0.00000000       0.003
   0.00000000  0.06329114  0.00000000       0.003
   0.00000000  0.05696203  0.00000000       0.003
   0.00000000  0.05063291  0.00000000       0.003
   0.00000000  0.04430380  0.00000000       0.003
   0.00000000  0.03797468  0.00000000       0.003
   0.00000000  0.03164557  0.00000000       0.003
   0.00000000  0.02531646  0.00000000       0.003
   0.00000000  0.01898734  0.00000000       0.003
   0.00000000  0.01265823  0.00000000       0.003
   0.00000000  0.00632911  0.00000000       0.003
   0.00000000  0.00000000  0.00000000       0.003
   0.00000000  0.00000000  0.00000000       0.003
   0.00421937  0.00421937  0.00000000       0.003
   0.00843873  0.00843873  0.00000000       0.003
   0.01265810  0.01265810  0.00000000       0.003
   0.01687747  0.01687747  0.00000000       0.003
   0.02109684  0.02109684  0.00000000       0.003
   0.02531620  0.02531620  0.00000000       0.003
   0.02953557  0.02953557  0.00000000       0.003
   0.03375494  0.03375494  0.00000000       0.003
   0.03797430  0.03797430  0.00000000       0.003
   0.04219367  0.04219367  0.00000000       0.003
   0.04641304  0.04641304  0.00000000       0.003
   0.05063241  0.05063241  0.00000000       0.003
   0.05485177  0.05485177  0.00000000       0.003
   0.05907114  0.05907114  0.00000000       0.003
   0.06329051  0.06329051  0.00000000       0.003
   0.06750987  0.06750987  0.00000000       0.003
   0.07172924  0.07172924  0.00000000       0.003
   0.07594861  0.07594861  0.00000000       0.003
   0.08016797  0.08016797  0.00000000       0.003
   0.08438734  0.08438734  0.00000000       0.003
   0.08860671  0.08860671  0.00000000       0.003
   0.09282608  0.09282608  0.00000000       0.003
   0.09704544  0.09704544  0.00000000       0.003
   0.10126481  0.10126481  0.00000000       0.003
   0.10548418  0.10548418  0.00000000       0.003
   0.10970354  0.10970354  0.00000000       0.003
   0.11392291  0.11392291  0.00000000       0.003
   0.11814228  0.11814228  0.00000000       0.003
   0.12236165  0.12236165  0.00000000       0.003
   0.12658101  0.12658101  0.00000000       0.003
   0.13080038  0.13080038  0.00000000       0.003
   0.13501975  0.13501975  0.00000000       0.003
   0.13923911  0.13923911  0.00000000       0.003
   0.14345848  0.14345848  0.00000000       0.003
   0.14767785  0.14767785  0.00000000       0.003
   0.15189722  0.15189722  0.00000000       0.003
   0.15611658  0.15611658  0.00000000       0.003
   0.16033595  0.16033595  0.00000000       0.003
   0.16455532  0.16455532  0.00000000       0.003
   0.16877468  0.16877468  0.00000000       0.003
   0.17299405  0.17299405  0.00000000       0.003
   0.17721342  0.17721342  0.00000000       0.003
   0.18143278  0.18143278  0.00000000       0.003
   0.18565215  0.18565215  0.00000000       0.003
   0.18987152  0.18987152  0.00000000       0.003
   0.19409089  0.19409089  0.00000000       0.003
   0.19831025  0.19831025  0.00000000       0.003
   0.20252962  0.20252962  0.00000000       0.003
   0.20674899  0.20674899  0.00000000       0.003
   0.21096835  0.21096835  0.00000000       0.003
   0.21518772  0.21518772  0.00000000       0.003
   0.21940709  0.21940709  0.00000000       0.003
   0.22362646  0.22362646  0.00000000       0.003
   0.22784582  0.22784582  0.00000000       0.003
   0.23206519  0.23206519  0.00000000       0.003
   0.23628456  0.23628456  0.00000000       0.003
   0.24050392  0.24050392  0.00000000       0.003
   0.24472329  0.24472329  0.00000000       0.003
   0.24894266  0.24894266  0.00000000       0.003
   0.25316203  0.25316203  0.00000000       0.003
   0.25738139  0.25738139  0.00000000       0.003
   0.26160076  0.26160076  0.00000000       0.003
   0.26582013  0.26582013  0.00000000       0.003
   0.27003949  0.27003949  0.00000000       0.003
   0.27425886  0.27425886  0.00000000       0.003
   0.27847823  0.27847823  0.00000000       0.003
   0.28269759  0.28269759  0.00000000       0.003
   0.28691696  0.28691696  0.00000000       0.003
   0.29113633  0.29113633  0.00000000       0.003
   0.29535570  0.29535570  0.00000000       0.003
   0.29957506  0.29957506  0.00000000       0.003
   0.30379443  0.30379443  0.00000000       0.003
   0.30801380  0.30801380  0.00000000       0.003
   0.31223316  0.31223316  0.00000000       0.003
   0.31645253  0.31645253  0.00000000       0.003
   0.32067190  0.32067190  0.00000000       0.003
   0.32489127  0.32489127  0.00000000       0.003
   0.32911063  0.32911063  0.00000000       0.003
   0.33333000  0.33333000  0.00000000       0.003
   0.33333000  0.33333000  0.00000000       0.003
   0.32489127  0.33754949  0.00000000       0.003
   0.31645253  0.34176899  0.00000000       0.003
   0.30801380  0.34598848  0.00000000       0.003
   0.29957506  0.35020797  0.00000000       0.003
   0.29113633  0.35442747  0.00000000       0.003
   0.28269759  0.35864696  0.00000000       0.003
   0.27425886  0.36286646  0.00000000       0.003
   0.26582013  0.36708595  0.00000000       0.003
   0.25738139  0.37130544  0.00000000       0.003
   0.24894266  0.37552494  0.00000000       0.003
   0.24050392  0.37974443  0.00000000       0.003
   0.23206519  0.38396392  0.00000000       0.003
   0.22362646  0.38818342  0.00000000       0.003
   0.21518772  0.39240291  0.00000000       0.003
   0.20674899  0.39662241  0.00000000       0.003
   0.19831025  0.40084190  0.00000000       0.003
   0.18987152  0.40506139  0.00000000       0.003
   0.18143278  0.40928089  0.00000000       0.003
   0.17299405  0.41350038  0.00000000       0.003
   0.16455532  0.41771987  0.00000000       0.003
   0.15611658  0.42193937  0.00000000       0.003
   0.14767785  0.42615886  0.00000000       0.003
   0.13923911  0.43037835  0.00000000       0.003
   0.13080038  0.43459785  0.00000000       0.003
   0.12236165  0.43881734  0.00000000       0.003
   0.11392291  0.44303684  0.00000000       0.003
   0.10548418  0.44725633  0.00000000       0.003
   0.09704544  0.45147582  0.00000000       0.003
   0.08860671  0.45569532  0.00000000       0.003
   0.08016797  0.45991481  0.00000000       0.003
   0.07172924  0.46413430  0.00000000       0.003
   0.06329051  0.46835380  0.00000000       0.003
   0.05485177  0.47257329  0.00000000       0.003
   0.04641304  0.47679278  0.00000000       0.003
   0.03797430  0.48101228  0.00000000       0.003
   0.02953557  0.48523177  0.00000000       0.003
   0.02109684  0.48945127  0.00000000       0.003
   0.01265810  0.49367076  0.00000000       0.003
   0.00421937  0.49789025  0.00000000       0.003
  -0.00421937  0.50210975  0.00000000       0.003
  -0.01265810  0.50632924  0.00000000       0.003
  -0.02109684  0.51054873  0.00000000       0.003
  -0.02953557  0.51476823  0.00000000       0.003
  -0.03797430  0.51898772  0.00000000       0.003
  -0.04641304  0.52320722  0.00000000       0.003
  -0.05485177  0.52742671  0.00000000       0.003
  -0.06329051  0.53164620  0.00000000       0.003
  -0.07172924  0.53586570  0.00000000       0.003
  -0.08016797  0.54008519  0.00000000       0.003
  -0.08860671  0.54430468  0.00000000       0.003
  -0.09704544  0.54852418  0.00000000       0.003
  -0.10548418  0.55274367  0.00000000       0.003
  -0.11392291  0.55696316  0.00000000       0.003
  -0.12236165  0.56118266  0.00000000       0.003
  -0.13080038  0.56540215  0.00000000       0.003
  -0.13923911  0.56962165  0.00000000       0.003
  -0.14767785  0.57384114  0.00000000       0.003
  -0.15611658  0.57806063  0.00000000       0.003
  -0.16455532  0.58228013  0.00000000       0.003
  -0.17299405  0.58649962  0.00000000       0.003
  -0.18143278  0.59071911  0.00000000       0.003
  -0.18987152  0.59493861  0.00000000       0.003
  -0.19831025  0.59915810  0.00000000       0.003
  -0.20674899  0.60337759  0.00000000       0.003
  -0.21518772  0.60759709  0.00000000       0.003
  -0.22362646  0.61181658  0.00000000       0.003
  -0.23206519  0.61603608  0.00000000       0.003
  -0.24050392  0.62025557  0.00000000       0.003
  -0.24894266  0.62447506  0.00000000       0.003
  -0.25738139  0.62869456  0.00000000       0.003
  -0.26582013  0.63291405  0.00000000       0.003
  -0.27425886  0.63713354  0.00000000       0.003
  -0.28269759  0.64135304  0.00000000       0.003
  -0.29113633  0.64557253  0.00000000       0.003
  -0.29957506  0.64979203  0.00000000       0.003
  -0.30801380  0.65401152  0.00000000       0.003
  -0.31645253  0.65823101  0.00000000       0.003
  -0.32489127  0.66245051  0.00000000       0.003
  -0.33333000  0.66667000  0.00000000       0.003
  -0.33333000  0.66667000  0.00000000       0.003
  -0.32911063  0.65823114  0.00000000       0.003
  -0.32489127  0.64979228  0.00000000       0.003
  -0.32067190  0.64135342  0.00000000       0.003
  -0.31645253  0.63291456  0.00000000       0.003
  -0.31223316  0.62447570  0.00000000       0.003
  -0.30801380  0.61603684  0.00000000       0.003
  -0.30379443  0.60759797  0.00000000       0.003
  -0.29957506  0.59915911  0.00000000       0.003
  -0.29535570  0.59072025  0.00000000       0.003
  -0.29113633  0.58228139  0.00000000       0.003
  -0.28691696  0.57384253  0.00000000       0.003
  -0.28269759  0.56540367  0.00000000       0.003
  -0.27847823  0.55696481  0.00000000       0.003
  -0.27425886  0.54852595  0.00000000       0.003
  -0.27003949  0.54008709  0.00000000       0.003
  -0.26582013  0.53164823  0.00000000       0.003
  -0.26160076  0.52320937  0.00000000       0.003
  -0.25738139  0.51477051  0.00000000       0.003
  -0.25316203  0.50633165  0.00000000       0.003
  -0.24894266  0.49789278  0.00000000       0.003
  -0.24472329  0.48945392  0.00000000       0.003
  -0.24050392  0.48101506  0.00000000       0.003
  -0.23628456  0.47257620  0.00000000       0.003
  -0.23206519  0.46413734  0.00000000       0.003
  -0.22784582  0.45569848  0.00000000       0.003
  -0.22362646  0.44725962  0.00000000       0.003
  -0.21940709  0.43882076  0.00000000       0.003
  -0.21518772  0.43038190  0.00000000       0.003
  -0.21096835  0.42194304  0.00000000       0.003
  -0.20674899  0.41350418  0.00000000       0.003
  -0.20252962  0.40506532  0.00000000       0.003
  -0.19831025  0.39662646  0.00000000       0.003
  -0.19409089  0.38818759  0.00000000       0.003
  -0.18987152  0.37974873  0.00000000       0.003
  -0.18565215  0.37130987  0.00000000       0.003
  -0.18143278  0.36287101  0.00000000       0.003
  -0.17721342  0.35443215  0.00000000       0.003
  -0.17299405  0.34599329  0.00000000       0.003
  -0.16877468  0.33755443  0.00000000       0.003
  -0.16455532  0.32911557  0.00000000       0.003
  -0.16033595  0.32067671  0.00000000       0.003
  -0.15611658  0.31223785  0.00000000       0.003
  -0.15189722  0.30379899  0.00000000       0.003
  -0.14767785  0.29536013  0.00000000       0.003
  -0.14345848  0.28692127  0.00000000       0.003
  -0.13923911  0.27848241  0.00000000       0.003
  -0.13501975  0.27004354  0.00000000       0.003
  -0.13080038  0.26160468  0.00000000       0.003
  -0.12658101  0.25316582  0.00000000       0.003
  -0.12236165  0.24472696  0.00000000       0.003
  -0.11814228  0.23628810  0.00000000       0.003
  -0.11392291  0.22784924  0.00000000       0.003
  -0.10970354  0.21941038  0.00000000       0.003
  -0.10548418  0.21097152  0.00000000       0.003
  -0.10126481  0.20253266  0.00000000       0.003
  -0.09704544  0.19409380  0.00000000       0.003
  -0.09282608  0.18565494  0.00000000       0.003
  -0.08860671  0.17721608  0.00000000       0.003
  -0.08438734  0.16877722  0.00000000       0.003
  -0.08016797  0.16033835  0.00000000       0.003
  -0.07594861  0.15189949  0.00000000       0.003
  -0.07172924  0.14346063  0.00000000       0.003
  -0.06750987  0.13502177  0.00000000       0.003
  -0.06329051  0.12658291  0.00000000       0.003
  -0.05907114  0.11814405  0.00000000       0.003
  -0.05485177  0.10970519  0.00000000       0.003
  -0.05063241  0.10126633  0.00000000       0.003
  -0.04641304  0.09282747  0.00000000       0.003
  -0.04219367  0.08438861  0.00000000       0.003
  -0.03797430  0.07594975  0.00000000       0.003
  -0.03375494  0.06751089  0.00000000       0.003
  -0.02953557  0.05907203  0.00000000       0.003
  -0.02531620  0.05063316  0.00000000       0.003
  -0.02109684  0.04219430  0.00000000       0.003
  -0.01687747  0.03375544  0.00000000       0.003
  -0.01265810  0.02531658  0.00000000       0.003
  -0.00843873  0.01687772  0.00000000       0.003
  -0.00421937  0.00843886  0.00000000       0.003
   0.00000000  0.00000000  0.00000000       0.003
 
 position of ions in fractional coordinates (direct lattice) 
   0.65636047  0.32818318  0.50045515
   0.98967035  0.99483369  0.38922010
   0.98971277  0.99485492  0.61169049
 
 position of ions in cartesian coordinates  (Angst):
   1.63433268  0.94359372  7.50682721
   1.63428164  2.86035015  5.83830150
   1.63438722  2.86041118  9.17535730
 
 Euler angles ALPHA=     0.0000000  BETA=     0.0000000

 transformation matrix from SAXIS to cartesian coordinates
 ---------------------------------------------------------
     1.0000000 m_x     0.0000000 m_y     0.0000000 m_z
     0.0000000 m_x     1.0000000 m_y     0.0000000 m_z
     0.0000000 m_x     0.0000000 m_y     1.0000000 m_z

 transformation matrix from cartesian coordinates to SAXIS
 ---------------------------------------------------------
     1.0000000 m_x     0.0000000 m_y     0.0000000 m_z
     0.0000000 m_x     1.0000000 m_y     0.0000000 m_z
     0.0000000 m_x     0.0000000 m_y     1.0000000 m_z




--------------------------------------------------------------------------------------------------------


 k-point   1 :   0.0000 0.5000 0.0000  plane waves:    2192
 k-point   2 :   0.0000 0.4937 0.0000  plane waves:    2192
 k-point   3 :   0.0000 0.4873 0.0000  plane waves:    2200
 k-point   4 :   0.0000 0.4810 0.0000  plane waves:    2198
 k-point   5 :   0.0000 0.4747 0.0000  plane waves:    2194
 k-point   6 :   0.0000 0.4684 0.0000  plane waves:    2194
 k-point   7 :   0.0000 0.4620 0.0000  plane waves:    2206
 k-point   8 :   0.0000 0.4557 0.0000  plane waves:    2198
 k-point   9 :   0.0000 0.4494 0.0000  plane waves:    2198
 k-point  10 :   0.0000 0.4430 0.0000  plane waves:    2198
 k-point  11 :   0.0000 0.4367 0.0000  plane waves:    2206
 k-point  12 :   0.0000 0.4304 0.0000  plane waves:    2206
 k-point  13 :   0.0000 0.4241 0.0000  plane waves:    2202
 k-point  14 :   0.0000 0.4177 0.0000  plane waves:    2202
[...]
  0.000   0.000   0.000   0.000   0.000   0.000   0.000   0.000   0.000   0.000   0.000   0.000   0.000   0.000   0.000   0.000
  0.000   0.000   0.000   0.000   0.000   0.000   0.000   0.000   0.000   0.000   0.000   0.000   0.000   0.000   0.000   0.000
  0.000   0.000   0.000   0.000   0.000   0.000   0.000   0.000   0.000   0.000   0.000   0.000   0.000   0.000   0.000   0.000
  0.000   0.000   0.000   0.000   0.000   0.000   0.000   0.000   0.000   0.000   0.000   0.000   0.000   0.000   0.000   0.000
 total augmentation occupancy for first ion, spin component:           2
  0.167   0.000   0.000   0.000   0.000   0.000   0.000   0.000   0.000   0.000   0.000   0.000   0.000   0.000   0.000   0.000
  0.000   0.167   0.000   0.000   0.000   0.000   0.000   0.000   0.000   0.000   0.000   0.000   0.000   0.000   0.000   0.000
  0.000   0.000   0.167   0.000   0.000   0.000   0.000   0.000   0.000   0.000   0.000   0.000   0.000   0.000   0.000   0.000
  0.000   0.000   0.000   0.167   0.000   0.000   0.000   0.000   0.000   0.000   0.000   0.000   0.000   0.000   0.000   0.000
  0.000   0.000   0.000   0.000   0.167   0.000   0.000   0.000   0.000   0.000   0.000   0.000   0.000   0.000   0.000   0.000
  0.000   0.000   0.000   0.000   0.000   0.000   0.000   0.000   0.000   0.000   0.000   0.000   0.000   0.000   0.000   0.000
  0.000   0.000   0.000   0.000   0.000   0.000   0.000   0.000   0.000   0.000   0.000   0.000   0.000   0.000   0.000   0.000
  0.000   0.000   0.000   0.000   0.000   0.000   0.000   0.000   0.000   0.000   0.000   0.000   0.000   0.000   0.000   0.000
  0.000   0.000   0.000   0.000   0.000   0.000   0.000   0.000   0.000   0.000   0.000   0.000   0.000   0.000   0.000   0.000
  0.000   0.000   0.000   0.000   0.000   0.000   0.000   0.000   0.000   0.000   0.000   0.000   0.000   0.000   0.000   0.000
  0.000   0.000   0.000   0.000   0.000   0.000   0.000   0.000   0.000   0.000   0.167   0.000   0.000   0.000   0.000   0.000
  0.000   0.000   0.000   0.000   0.000   0.000   0.000   0.000   0.000   0.000   0.000   0.000   0.000   0.000   0.000   0.000
  0.000   0.000   0.000   0.000   0.000   0.000   0.000   0.000   0.000   0.000   0.000   0.000   0.000   0.000   0.000   0.000
  0.000   0.000   0.000   0.000   0.000   0.000   0.000   0.000   0.000   0.000   0.000   0.000   0.000   0.000   0.000   0.000
  0.000   0.000   0.000   0.000   0.000   0.000   0.000   0.000   0.000   0.000   0.000   0.000   0.000   0.000   0.000   0.000
  0.000   0.000   0.000   0.000   0.000   0.000   0.000   0.000   0.000   0.000   0.000   0.000   0.000   0.000   0.000   0.000
  0.000   0.000   0.000   0.000   0.000   0.000   0.000   0.000   0.000   0.000   0.000   0.000   0.000   0.000   0.000   0.000
  0.000   0.000   0.000   0.000   0.000   0.000   0.000   0.000   0.000   0.000   0.000   0.000   0.000   0.000   0.000   0.000
 total augmentation occupancy for first ion, spin component:           3
  0.167   0.000   0.000   0.000   0.000   0.000   0.000   0.000   0.000   0.000   0.000   0.000   0.000   0.000   0.000   0.000
  0.000   0.167   0.000   0.000   0.000   0.000   0.000   0.000   0.000   0.000   0.000   0.000   0.000   0.000   0.000   0.000
  0.000   0.000   0.167   0.000   0.000   0.000   0.000   0.000   0.000   0.000   0.000   0.000   0.000   0.000   0.000   0.000
  0.000   0.000   0.000   0.167   0.000   0.000   0.000   0.000   0.000   0.000   0.000   0.000   0.000   0.000   0.000   0.000
  0.000   0.000   0.000   0.000   0.167   0.000   0.000   0.000   0.000   0.000   0.000   0.000   0.000   0.000   0.000   0.000
  0.000   0.000   0.000   0.000   0.000   0.000   0.000   0.000   0.000   0.000   0.000   0.000   0.000   0.000   0.000   0.000
  0.000   0.000   0.000   0.000   0.000   0.000   0.000   0.000   0.000   0.000   0.000   0.000   0.000   0.000   0.000   0.000
  0.000   0.000   0.000   0.000   0.000   0.000   0.000   0.000   0.000   0.000   0.000   0.000   0.000   0.000   0.000   0.000
  0.000   0.000   0.000   0.000   0.000   0.000   0.000   0.000   0.000   0.000   0.000   0.000   0.000   0.000   0.000   0.000
  0.000   0.000   0.000   0.000   0.000   0.000   0.000   0.000   0.000   0.000   0.000   0.000   0.000   0.000   0.000   0.000
  0.000   0.000   0.000   0.000   0.000   0.000   0.000   0.000   0.000   0.000   0.167   0.000   0.000   0.000   0.000   0.000
  0.000   0.000   0.000   0.000   0.000   0.000   0.000   0.000   0.000   0.000   0.000   0.000   0.000   0.000   0.000   0.000
  0.000   0.000   0.000   0.000   0.000   0.000   0.000   0.000   0.000   0.000   0.000   0.000   0.000   0.000   0.000   0.000
  0.000   0.000   0.000   0.000   0.000   0.000   0.000   0.000   0.000   0.000   0.000   0.000   0.000   0.000   0.000   0.000
  0.000   0.000   0.000   0.000   0.000   0.000   0.000   0.000   0.000   0.000   0.000   0.000   0.000   0.000   0.000   0.000
  0.000   0.000   0.000   0.000   0.000   0.000   0.000   0.000   0.000   0.000   0.000   0.000   0.000   0.000   0.000   0.000
  0.000   0.000   0.000   0.000   0.000   0.000   0.000   0.000   0.000   0.000   0.000   0.000   0.000   0.000   0.000   0.000
  0.000   0.000   0.000   0.000   0.000   0.000   0.000   0.000   0.000   0.000   0.000   0.000   0.000   0.000   0.000   0.000
 total augmentation occupancy for first ion, spin component:           4
  0.167   0.000   0.000   0.000   0.000   0.000   0.000   0.000   0.000   0.000   0.000   0.000   0.000   0.000   0.000   0.000
  0.000   0.167   0.000   0.000   0.000   0.000   0.000   0.000   0.000   0.000   0.000   0.000   0.000   0.000   0.000   0.000
  0.000   0.000   0.167   0.000   0.000   0.000   0.000   0.000   0.000   0.000   0.000   0.000   0.000   0.000   0.000   0.000
  0.000   0.000   0.000   0.167   0.000   0.000   0.000   0.000   0.000   0.000   0.000   0.000   0.000   0.000   0.000   0.000
  0.000   0.000   0.000   0.000   0.167   0.000   0.000   0.000   0.000   0.000   0.000   0.000   0.000   0.000   0.000   0.000
  0.000   0.000   0.000   0.000   0.000   0.000   0.000   0.000   0.000   0.000   0.000   0.000   0.000   0.000   0.000   0.000
  0.000   0.000   0.000   0.000   0.000   0.000   0.000   0.000   0.000   0.000   0.000   0.000   0.000   0.000   0.000   0.000
  0.000   0.000   0.000   0.000   0.000   0.000   0.000   0.000   0.000   0.000   0.000   0.000   0.000   0.000   0.000   0.000
  0.000   0.000   0.000   0.000   0.000   0.000   0.000   0.000   0.000   0.000   0.000   0.000   0.000   0.000   0.000   0.000
  0.000   0.000   0.000   0.000   0.000   0.000   0.000   0.000   0.000   0.000   0.000   0.000   0.000   0.000   0.000   0.000
  0.000   0.000   0.000   0.000   0.000   0.000   0.000   0.000   0.000   0.000   0.167   0.000   0.000   0.000   0.000   0.000
  0.000   0.000   0.000   0.000   0.000   0.000   0.000   0.000   0.000   0.000   0.000   0.000   0.000   0.000   0.000   0.000
  0.000   0.000   0.000   0.000   0.000   0.000   0.000   0.000   0.000   0.000   0.000   0.000   0.000   0.000   0.000   0.000
  0.000   0.000   0.000   0.000   0.000   0.000   0.000   0.000   0.000   0.000   0.000   0.000   0.000   0.000   0.000   0.000
  0.000   0.000   0.000   0.000   0.000   0.000   0.000   0.000   0.000   0.000   0.000   0.000   0.000   0.000   0.000   0.000
  0.000   0.000   0.000   0.000   0.000   0.000   0.000   0.000   0.000   0.000   0.000   0.000   0.000   0.000   0.000   0.000
  0.000   0.000   0.000   0.000   0.000   0.000   0.000   0.000   0.000   0.000   0.000   0.000   0.000   0.000   0.000   0.000
  0.000   0.000   0.000   0.000   0.000   0.000   0.000   0.000   0.000   0.000   0.000   0.000   0.000   0.000   0.000   0.000


------------------------ aborting loop because EDIFF is reached ----------------------------------------





 total charge

# of ion       s       p       d       tot
------------------------------------------
    1        0.389   0.486   4.609   5.484
    2        1.465   2.281   0.061   3.807
    3        1.465   2.281   0.061   3.807
--------------------------------------------------
tot          3.318   5.048   4.732  13.099



 magnetization (x)

# of ion       s       p       d       tot
------------------------------------------
    1        0.000  -0.000  -0.000  -0.000
    2       -0.000  -0.004  -0.000  -0.004
    3        0.000   0.004   0.000   0.004
--------------------------------------------------
tot         -0.000  -0.000  -0.000  -0.000



 magnetization (y)

# of ion       s       p       d       tot
------------------------------------------
    1       -0.000  -0.000  -0.000  -0.000
    2       -0.000  -0.000   0.000  -0.000
    3       -0.000  -0.000  -0.000  -0.000
--------------------------------------------------
tot         -0.000  -0.000  -0.000  -0.000



 magnetization (z)

# of ion       s       p       d       tot
------------------------------------------
    1       -0.000  -0.000  -0.000  -0.000
    2       -0.000  -0.000   0.000  -0.000
    3       -0.000  -0.000  -0.000  -0.000
--------------------------------------------------
tot         -0.000  -0.000  -0.000  -0.000
 
    CHARGE:  cpu time      0.0844: real time      0.0847
    FORLOC:  cpu time      0.0004: real time      0.0004
    FORNL :  cpu time      0.1151: real time      0.1155
    STRESS:  cpu time      0.3503: real time      0.3531
    FORCOR:  cpu time      0.0116: real time      0.0117
    FORHAR:  cpu time      0.0013: real time      0.0013
    OFIELD:  cpu time      0.0001: real time      0.0001

  FORCE on cell =-STRESS in cart. coord.  units (eV):
  Direction    XX          YY          ZZ          XY          YZ          ZX
  --------------------------------------------------------------------------------------
  Alpha Z    28.99437    28.99437    28.99437
  Ewald    1474.19609  1474.19937 -2016.08190     0.00018    -0.00213    -0.00368
  Hartree  1618.48623  1617.24452 -1587.28175     0.00003    -0.00026    -0.00037
  E(xc)     -73.25133   -71.44048   -73.15468     0.00002     0.00008     0.00009
  Local   -3332.90289 -3324.49146  3361.08764    -0.00023     0.00231     0.00355
  n-local    57.98412    59.44375    65.23394     0.00003    -0.00029    -0.00067
  augment     2.29104     1.68125     0.72335    -0.00019    -0.00001     0.00002
  Kinetic   224.01241   214.08351   221.21489    -0.00013    -0.00029    -0.00042
  Fock        0.00000     0.00000     0.00000     0.00000     0.00000     0.00000
  -------------------------------------------------------------------------------------
  Total      -0.18995    -0.28516     0.73587    -0.00028    -0.00058    -0.00146
  in kB      -2.12549    -3.19083     8.23407    -0.00319    -0.00645    -0.01636
  external pressure =        0.97 kB  Pullay stress =        0.00 kB


 VOLUME and BASIS-vectors are now :
 -----------------------------------------------------------------------------
  energy-cutoff  :      224.58
  volume of cell :      143.19
      direct lattice vectors                 reciprocal lattice vectors
     3.320000000  0.000000000  0.000000000     0.301204819  0.173900683  0.000000000
    -1.660000000  2.875204341  0.000000000     0.000000000  0.347801367  0.000000000
     0.000000000  0.000000000 15.000000000     0.000000000  0.000000000  0.066666667

  length of vectors
     3.320000000  3.320000000 15.000000000     0.347801367  0.347801367  0.066666667


 FORCES acting on ions
    electron-ion (+dipol)            ewald-force                    non-local-force                 convergence-correction
 -----------------------------------------------------------------------------------------------
   -.154E-03 -.265E+00 -.757E-02   0.840E-04 -.764E-03 -.105E-04   -.429E-05 0.130E+00 -.484E-03   0.102E-03 0.331E-01 0.784E-02
   -.118E-02 0.945E+00 0.435E+03   0.106E-02 0.102E-02 -.432E+03   0.320E-03 -.173E+00 0.188E+01   0.123E-03 -.670E+00 -.403E+01
   0.116E-02 0.946E+00 -.435E+03   -.114E-02 -.255E-03 0.432E+03   -.335E-03 -.173E+00 -.188E+01   -.532E-04 -.671E+00 0.404E+01
 -----------------------------------------------------------------------------------------------
   -.176E-03 0.163E+01 -.174E-01   -.962E-14 -.634E-15 0.000E+00   -.198E-04 -.216E+00 0.127E-03   0.171E-03 -.131E+01 0.172E-01
 
 
 POSITION                                       TOTAL-FORCE (eV/Angst)
 -----------------------------------------------------------------------------------
      1.63433      0.94359      7.50683         0.000036     -0.136636     -0.000202
      1.63428      2.86035      5.83830         0.000328      0.068446      0.077471
      1.63439      2.86041      9.17536        -0.000363      0.068190     -0.077269
 -----------------------------------------------------------------------------------
    total drift:                               -0.000025      0.102323     -0.000071


--------------------------------------------------------------------------------------------------------



  FREE ENERGIE OF THE ION-ELECTRON SYSTEM (eV)
  ---------------------------------------------------
  free  energy   TOTEN  =       -19.54077393 eV

  energy  without entropy=      -19.54077393  energy(sigma->0) =      -19.54077393
 


--------------------------------------------------------------------------------------------------------


    POTLOK:  cpu time      0.0175: real time      0.0176


--------------------------------------------------------------------------------------------------------


 stress matrix after NEB project (eV)
     -0.18995     -0.00028     -0.00146
     -0.00028     -0.28516     -0.00058
     -0.00146     -0.00058      0.73587
  FORCES: max atom, RMS     0.136636    0.115436
  FORCE total and by dimension    0.199941    0.136636
  Stress total and by dimension    0.811734    0.735871
 writing wavefunctions
     LOOP+:  cpu time     23.3416: real time     23.6277
    4ORBIT:  cpu time      0.0000: real time      0.0000

 Spin-Orbit-Coupling matrix elements

 Ion:    1  E_soc:     -0.0285741
 l=   1
     0.0000000    -0.0023719    -0.0017646
    -0.0023719     0.0000000    -0.0017038
    -0.0017646    -0.0017038     0.0000000
 l=   2
     0.0000000    -0.0003158     0.0000000    -0.0005190    -0.0029358
    -0.0003158     0.0000000    -0.0017735    -0.0002754    -0.0005427
     0.0000000    -0.0017735     0.0000000    -0.0014208     0.0000000
    -0.0005190    -0.0002754    -0.0014208     0.0000000    -0.0006637
    -0.0029358    -0.0005427     0.0000000    -0.0006637     0.0000000
 l=   3
     0.0000000     0.0000000     0.0000000     0.0000000     0.0000000     0.0000000     0.0000000
     0.0000000     0.0000000     0.0000000     0.0000000     0.0000000     0.0000000     0.0000000
     0.0000000     0.0000000     0.0000000     0.0000000     0.0000000     0.0000000     0.0000000
     0.0000000     0.0000000     0.0000000     0.0000000     0.0000000     0.0000000     0.0000000
     0.0000000     0.0000000     0.0000000     0.0000000     0.0000000     0.0000000     0.0000000
     0.0000000     0.0000000     0.0000000     0.0000000     0.0000000     0.0000000     0.0000000
     0.0000000     0.0000000     0.0000000     0.0000000     0.0000000     0.0000000     0.0000000

 Ion:    2  E_soc:     -0.0408423
 l=   1
     0.0000000    -0.0066862    -0.0069182
    -0.0066862     0.0000000    -0.0068102
    -0.0069182    -0.0068102     0.0000000
 l=   2
     0.0000000    -0.0000002     0.0000000    -0.0000006    -0.0000096
    -0.0000002     0.0000000    -0.0000036     0.0000069     0.0000025
     0.0000000    -0.0000036     0.0000000    -0.0000018     0.0000000
    -0.0000006     0.0000069    -0.0000018     0.0000000    -0.0000001
    -0.0000096     0.0000025     0.0000000    -0.0000001     0.0000000
 l=   3
     0.0000000     0.0000000     0.0000000     0.0000000     0.0000000     0.0000000     0.0000000
     0.0000000     0.0000000     0.0000000     0.0000000     0.0000000     0.0000000     0.0000000
     0.0000000     0.0000000     0.0000000     0.0000000     0.0000000     0.0000000     0.0000000
     0.0000000     0.0000000     0.0000000     0.0000000     0.0000000     0.0000000     0.0000000
     0.0000000     0.0000000     0.0000000     0.0000000     0.0000000     0.0000000     0.0000000
     0.0000000     0.0000000     0.0000000     0.0000000     0.0000000     0.0000000     0.0000000
     0.0000000     0.0000000     0.0000000     0.0000000     0.0000000     0.0000000     0.0000000

 Ion:    3  E_soc:     -0.0408427
 l=   1
     0.0000000    -0.0066864    -0.0069181
    -0.0066864     0.0000000    -0.0068103
    -0.0069181    -0.0068103     0.0000000
 l=   2
     0.0000000    -0.0000002     0.0000000    -0.0000006    -0.0000096
    -0.0000002     0.0000000    -0.0000036     0.0000069     0.0000025
     0.0000000    -0.0000036     0.0000000    -0.0000018     0.0000000
    -0.0000006     0.0000069    -0.0000018     0.0000000    -0.0000001
    -0.0000096     0.0000025     0.0000000    -0.0000001     0.0000000
 l=   3
     0.0000000     0.0000000     0.0000000     0.0000000     0.0000000     0.0000000     0.0000000
     0.0000000     0.0000000     0.0000000     0.0000000     0.0000000     0.0000000     0.0000000
     0.0000000     0.0000000     0.0000000     0.0000000     0.0000000     0.0000000     0.0000000
     0.0000000     0.0000000     0.0000000     0.0000000     0.0000000     0.0000000     0.0000000
     0.0000000     0.0000000     0.0000000     0.0000000     0.0000000     0.0000000     0.0000000
     0.0000000     0.0000000     0.0000000     0.0000000     0.0000000     0.0000000     0.0000000
     0.0000000     0.0000000     0.0000000     0.0000000     0.0000000     0.0000000     0.0000000



 total charge

# of ion       s       p       d       tot
------------------------------------------
    1        0.389   0.486   4.609   5.484
    2        1.465   2.281   0.061   3.807
    3        1.465   2.281   0.061   3.807
--------------------------------------------------
tot          3.318   5.048   4.732  13.099



 magnetization (x)

# of ion       s       p       d       tot
------------------------------------------
    1        0.000  -0.000  -0.000  -0.000
    2       -0.000  -0.004  -0.000  -0.004
    3        0.000   0.004   0.000   0.004
--------------------------------------------------
tot         -0.000  -0.000  -0.000  -0.000



 magnetization (y)

# of ion       s       p       d       tot
------------------------------------------
    1       -0.000  -0.000  -0.000  -0.000
    2       -0.000  -0.000   0.000  -0.000
    3       -0.000  -0.000  -0.000  -0.000
--------------------------------------------------
tot         -0.000  -0.000  -0.000  -0.000



 magnetization (z)

# of ion       s       p       d       tot
------------------------------------------
    1       -0.000  -0.000  -0.000  -0.000
    2       -0.000  -0.000   0.000  -0.000
    3       -0.000  -0.000  -0.000  -0.000
--------------------------------------------------
tot         -0.000  -0.000  -0.000  -0.000
 

 total amount of memory used by VASP MPI-rank0    58792. kBytes
=======================================================================

   base      :      30000. kBytes
   nonl-proj :      17703. kBytes
   fftplans  :        460. kBytes
   grid      :       1720. kBytes
   one-center:         62. kBytes
   wavefun   :       8847. kBytes
 
  
  
 General timing and accounting informations for this job:
 ========================================================
  
                  Total CPU time used (sec):       27.272
                            User time (sec):       26.570
                          System time (sec):        0.702
                         Elapsed time (sec):       28.429
  
                   Maximum memory used (kb):      272552.
                   Average memory used (kb):          N/A
  
                          Minor page faults:        32123
                          Major page faults:            0
                 Voluntary context switches:         2285
