 vasp.6.3.0 20Jan22 (build Oct 03 2022 14:51:58) complex                        
  
 executed on             LinuxIFC date 2024.09.19  16:09:13
 running on   48 total cores
 distrk:  each k-point on   48 cores,    1 groups
 distr:  one band on NCORE=   6 cores,    8 groups


--------------------------------------------------------------------------------------------------------


 INCAR:
   SYSTEM = MoSe2
   PREC = Accurate
   ISPIN = 1
   ISTART = 0
   ICHARG = 1
   NPAR = 8
   ISMEAR = 0
   SIGMA = 0.1
   ALGO = Normal
   NELMIN = 4
   NELM = 200
   EDIFF = 1E-6
   MAGMOM = 0 0 1 6*0
   IBRION = -1
   NWRITE = 1
   LORBIT = 11
   LWAVE = .TRUE.
   LCHARG = .TRUE.
   LSORBIT = .TRUE.

 POTCAR:    PAW_PBE Mo 08Apr2002                  
 POTCAR:    PAW_PBE Se 06Sep2000                  
 POTCAR:    PAW_PBE Mo 08Apr2002                  
  local pseudopotential read in
  partial core-charges read in
  partial kinetic energy density read in
  atomic valenz-charges read in
  non local Contribution for L=           2  read in
    real space projection operators read in
  non local Contribution for L=           2  read in
    real space projection operators read in
  non local Contribution for L=           0  read in
    real space projection operators read in
  non local Contribution for L=           0  read in
    real space projection operators read in
  non local Contribution for L=           1  read in
    real space projection operators read in
  non local Contribution for L=           1  read in
    real space projection operators read in
    PAW grid and wavefunctions read in
 
   number of l-projection  operators is LMAX  =           6
   number of lm-projection operators is LMMAX =          18
 
 POTCAR:    PAW_PBE Se 06Sep2000                  
  local pseudopotential read in
  partial core-charges read in
  partial kinetic energy density read in
  atomic valenz-charges read in
  non local Contribution for L=           0  read in
    real space projection operators read in
  non local Contribution for L=           0  read in
    real space projection operators read in
  non local Contribution for L=           1  read in
    real space projection operators read in
  non local Contribution for L=           1  read in
    real space projection operators read in
  non local Contribution for L=           2  read in
    real space projection operators read in
    PAW grid and wavefunctions read in
 
   number of l-projection  operators is LMAX  =           5
   number of lm-projection operators is LMMAX =          13
 
  PAW_PBE Mo 08Apr2002                  :
 energy of atom  1       EATOM= -217.5176
 kinetic energy error for atom=    0.0303 (will be added to EATOM!!)
  PAW_PBE Se 06Sep2000                  :
 energy of atom  2       EATOM= -257.1286
 kinetic energy error for atom=    0.0119 (will be added to EATOM!!)
 
 
 POSCAR: Mo  S
  positions in direct lattice
  velocities in cartesian coordinates
 exchange correlation table for  LEXCH =        8
   RHO(1)=    0.500       N(1)  =     2000
   RHO(2)=  100.500       N(2)  =     4000

 VTST: version 4.2, (08/11/21)

 CHAIN: initializing optimizer
 
 OPT: Using VASP Dynamics algorithm
 CHAIN: Read ICHAIN            0
 
 POSCAR: Mo  S
  positions in direct lattice
  velocities in cartesian coordinates
 


--------------------------------------------------------------------------------------------------------


 ion  position               nearest neighbor table
   1  0.656  0.328  0.500-   3 2.54   2 2.54   2 2.54   3 2.54   3 2.54   2 2.54
   2  0.990  0.995  0.389-   1 2.54   1 2.54   1 2.54
   3  0.990  0.995  0.612-   1 2.54   1 2.54   1 2.54
 
  LATTYP: Found a hexagonal cell.
 ALAT       =     3.3200000000
 C/A-ratio  =     4.5180722892
  
  Lattice vectors:
  
 A1 = (   3.3200000000,   0.0000000000,   0.0000000000)
 A2 = (  -1.6600000000,   2.8752043406,   0.0000000000)
 A3 = (   0.0000000000,   0.0000000000,  15.0000000000)


Analysis of symmetry for initial positions (statically):
=====================================================================
 Subroutine PRICEL returns:
 Original cell was already a primitive cell.
 

 Routine SETGRP: Setting up the symmetry group for a 
 hexagonal supercell.


 Subroutine GETGRP returns: Found  2 space group operations
 (whereof  2 operations were pure point group operations)
 out of a pool of 24 trial point group operations.


The static configuration has the point symmetry C_1h.


Analysis of symmetry for dynamics (positions and initial velocities):
=====================================================================
 Subroutine PRICEL returns:
 Original cell was already a primitive cell.
 

 Routine SETGRP: Setting up the symmetry group for a 
 hexagonal supercell.


 Subroutine GETGRP returns: Found  2 space group operations
 (whereof  2 operations were pure point group operations)
 out of a pool of 24 trial point group operations.


The dynamic configuration has the point symmetry C_1h.


Analysis of structural, dynamic, and magnetic symmetry:
=====================================================================
 Subroutine PRICEL returns:
 Original cell was already a primitive cell.
 

 Routine SETGRP: Setting up the symmetry group for a 
 hexagonal supercell.


 Subroutine GETGRP returns: Found  1 space group operations
 (whereof  1 operations were pure point group operations)
 out of a pool of 24 trial point group operations.


The overall configuration has the point symmetry C_1 .


 Subroutine INISYM returns: Found  1 space group operations
 (whereof  1 operations are pure point group operations),
 and found     1 'primitive' translations


----------------------------------------------------------------------------------------

                                     Primitive cell                                     

  volume of cell :     143.1852

  direct lattice vectors                    reciprocal lattice vectors
     3.320000000  0.000000000  0.000000000     0.301204819  0.173900683  0.000000000
    -1.660000000  2.875204341  0.000000000     0.000000000  0.347801367  0.000000000
     0.000000000  0.000000000 15.000000000     0.000000000  0.000000000  0.066666667

  length of vectors
     3.320000000  3.320000000 15.000000000     0.347801367  0.347801367  0.066666667

  position of ions in fractional coordinates (direct lattice)
     0.656360473  0.328183185  0.500455147
     0.989670353  0.994833693  0.389220100
     0.989712767  0.994854919  0.611690486

  ion indices of the primitive-cell ions
   primitive index   ion index
                 1           1
                 2           2
                 3           3

----------------------------------------------------------------------------------------

 
 
 KPOINTS: Automatic mesh                          

Automatic generation of k-mesh.
 Grid dimensions read from file:
 generate k-points for:   21   21    1

 Generating k-lattice:

  Cartesian coordinates                     Fractional coordinates (reciprocal lattice)
     0.014343087  0.008280985  0.000000000     0.047619048 -0.000000000  0.000000000
     0.000000000  0.016561970  0.000000000     0.000000000  0.047619048  0.000000000
     0.000000000  0.000000000  0.066666667     0.000000000  0.000000000  1.000000000

  Length of vectors
     0.016561970  0.016561970  0.066666667

  Shift w.r.t. Gamma in fractional coordinates (k-lattice)
     0.000000000  0.000000000  0.000000000

 
 Subroutine IBZKPT returns following result:
 ===========================================
 
 Found    441 irreducible k-points:
 
 Following reciprocal coordinates:
            Coordinates               Weight
  0.000000  0.000000  0.000000      1.000000
  0.047619 -0.000000  0.000000      1.000000
 -0.047619  0.000000  0.000000      1.000000
  0.000000  0.047619  0.000000      1.000000
  0.000000 -0.047619  0.000000      1.000000
 -0.047619  0.047619  0.000000      1.000000
  0.047619 -0.047619  0.000000      1.000000
  0.095238  0.000000  0.000000      1.000000
 -0.095238 -0.000000  0.000000      1.000000
  0.000000  0.095238  0.000000      1.000000
  0.000000 -0.095238  0.000000      1.000000
 -0.095238  0.095238  0.000000      1.000000
  0.095238 -0.095238  0.000000      1.000000
  0.142857 -0.000000  0.000000      1.000000
 -0.142857  0.000000  0.000000      1.000000
  0.000000  0.142857  0.000000      1.000000
  0.000000 -0.142857  0.000000      1.000000
 -0.142857  0.142857  0.000000      1.000000
  0.142857 -0.142857  0.000000      1.000000
  0.190476  0.000000  0.000000      1.000000
 -0.190476 -0.000000  0.000000      1.000000
  0.000000  0.190476  0.000000      1.000000
  0.000000 -0.190476  0.000000      1.000000
 -0.190476  0.190476  0.000000      1.000000
  0.190476 -0.190476  0.000000      1.000000
  0.238095 -0.000000  0.000000      1.000000
 -0.238095  0.000000  0.000000      1.000000
  0.000000  0.238095  0.000000      1.000000
  0.000000 -0.238095  0.000000      1.000000
 -0.238095  0.238095  0.000000      1.000000
  0.238095 -0.238095  0.000000      1.000000
  0.285714 -0.000000  0.000000      1.000000
 -0.285714  0.000000  0.000000      1.000000
  0.000000  0.285714  0.000000      1.000000
  0.000000 -0.285714  0.000000      1.000000
 -0.285714  0.285714  0.000000      1.000000
  0.285714 -0.285714  0.000000      1.000000
  0.333333 -0.000000  0.000000      1.000000
 -0.333333  0.000000  0.000000      1.000000
  0.000000  0.333333  0.000000      1.000000
  0.000000 -0.333333  0.000000      1.000000
 -0.333333  0.333333  0.000000      1.000000
  0.333333 -0.333333  0.000000      1.000000
  0.380952  0.000000  0.000000      1.000000
 -0.380952 -0.000000  0.000000      1.000000
  0.000000  0.380952  0.000000      1.000000
  0.000000 -0.380952  0.000000      1.000000
 -0.380952  0.380952  0.000000      1.000000
  0.380952 -0.380952  0.000000      1.000000
  0.428571  0.000000  0.000000      1.000000
 -0.428571 -0.000000  0.000000      1.000000
  0.000000  0.428571  0.000000      1.000000
  0.000000 -0.428571  0.000000      1.000000
 -0.428571  0.428571  0.000000      1.000000
  0.428571 -0.428571  0.000000      1.000000
  0.476190 -0.000000  0.000000      1.000000
 -0.476190  0.000000  0.000000      1.000000
  0.000000  0.476190  0.000000      1.000000
  0.000000 -0.476190  0.000000      1.000000
 -0.476190  0.476190  0.000000      1.000000
  0.476190 -0.476190  0.000000      1.000000
  0.047619  0.047619  0.000000      1.000000
 -0.047619 -0.047619  0.000000      1.000000
 -0.047619  0.095238  0.000000      1.000000
  0.047619 -0.095238  0.000000      1.000000
 -0.095238  0.047619  0.000000      1.000000
  0.095238 -0.047619  0.000000      1.000000
  0.095238  0.047619  0.000000      1.000000
 -0.095238 -0.047619  0.000000      1.000000
 -0.047619  0.142857  0.000000      1.000000
  0.047619 -0.142857  0.000000      1.000000
 -0.142857  0.095238  0.000000      1.000000
  0.142857 -0.095238  0.000000      1.000000
 -0.095238  0.142857  0.000000      1.000000
  0.095238 -0.142857  0.000000      1.000000
  0.047619  0.095238  0.000000      1.000000
 -0.047619 -0.095238  0.000000      1.000000
  0.142857 -0.047619  0.000000      1.000000
 -0.142857  0.047619  0.000000      1.000000
  0.142857  0.047619  0.000000      1.000000
 -0.142857 -0.047619  0.000000      1.000000
 -0.047619  0.190476  0.000000      1.000000
  0.047619 -0.190476  0.000000      1.000000
 -0.190476  0.142857  0.000000      1.000000
  0.190476 -0.142857  0.000000      1.000000
 -0.142857  0.190476  0.000000      1.000000
  0.142857 -0.190476  0.000000      1.000000
  0.047619  0.142857  0.000000      1.000000
 -0.047619 -0.142857  0.000000      1.000000
  0.190476 -0.047619  0.000000      1.000000
 -0.190476  0.047619  0.000000      1.000000
  0.190476  0.047619  0.000000      1.000000
 -0.190476 -0.047619  0.000000      1.000000
 -0.047619  0.238095  0.000000      1.000000
  0.047619 -0.238095  0.000000      1.000000
 -0.238095  0.190476  0.000000      1.000000
  0.238095 -0.190476  0.000000      1.000000
 -0.190476  0.238095  0.000000      1.000000
  0.190476 -0.238095  0.000000      1.000000
  0.047619  0.190476  0.000000      1.000000
 -0.047619 -0.190476  0.000000      1.000000
  0.238095 -0.047619  0.000000      1.000000
 -0.238095  0.047619  0.000000      1.000000
  0.238095  0.047619  0.000000      1.000000
 -0.238095 -0.047619  0.000000      1.000000
 -0.047619  0.285714  0.000000      1.000000
  0.047619 -0.285714  0.000000      1.000000
 -0.285714  0.238095  0.000000      1.000000
  0.285714 -0.238095  0.000000      1.000000
 -0.238095  0.285714  0.000000      1.000000
  0.238095 -0.285714  0.000000      1.000000
  0.047619  0.238095  0.000000      1.000000
 -0.047619 -0.238095  0.000000      1.000000
  0.285714 -0.047619  0.000000      1.000000
 -0.285714  0.047619  0.000000      1.000000
  0.285714  0.047619  0.000000      1.000000
 -0.285714 -0.047619  0.000000      1.000000
 -0.047619  0.333333  0.000000      1.000000
  0.047619 -0.333333  0.000000      1.000000
 -0.333333  0.285714  0.000000      1.000000
  0.333333 -0.285714  0.000000      1.000000
 -0.285714  0.333333  0.000000      1.000000
  0.285714 -0.333333  0.000000      1.000000
  0.047619  0.285714  0.000000      1.000000
 -0.047619 -0.285714  0.000000      1.000000
  0.333333 -0.047619  0.000000      1.000000
 -0.333333  0.047619  0.000000      1.000000
  0.333333  0.047619  0.000000      1.000000
 -0.333333 -0.047619  0.000000      1.000000
 -0.047619  0.380952  0.000000      1.000000
  0.047619 -0.380952  0.000000      1.000000
 -0.380952  0.333333  0.000000      1.000000
  0.380952 -0.333333  0.000000      1.000000
 -0.333333  0.380952  0.000000      1.000000
  0.333333 -0.380952  0.000000      1.000000
  0.047619  0.333333  0.000000      1.000000
 -0.047619 -0.333333  0.000000      1.000000
  0.380952 -0.047619  0.000000      1.000000
 -0.380952  0.047619  0.000000      1.000000
  0.380952  0.047619  0.000000      1.000000
 -0.380952 -0.047619  0.000000      1.000000
 -0.047619  0.428571  0.000000      1.000000
  0.047619 -0.428571  0.000000      1.000000
 -0.428571  0.380952  0.000000      1.000000
  0.428571 -0.380952  0.000000      1.000000
 -0.380952  0.428571  0.000000      1.000000
  0.380952 -0.428571  0.000000      1.000000
  0.047619  0.380952  0.000000      1.000000
 -0.047619 -0.380952  0.000000      1.000000
  0.428571 -0.047619  0.000000      1.000000
 -0.428571  0.047619  0.000000      1.000000
  0.428571  0.047619  0.000000      1.000000
 -0.428571 -0.047619  0.000000      1.000000
 -0.047619  0.476190  0.000000      1.000000
  0.047619 -0.476190  0.000000      1.000000
 -0.476190  0.428571  0.000000      1.000000
  0.476190 -0.428571  0.000000      1.000000
 -0.428571  0.476190  0.000000      1.000000
  0.428571 -0.476190  0.000000      1.000000
  0.047619  0.428571  0.000000      1.000000
 -0.047619 -0.428571  0.000000      1.000000
  0.476190 -0.047619  0.000000      1.000000
 -0.476190  0.047619  0.000000      1.000000
  0.476190  0.047619  0.000000      1.000000
 -0.476190 -0.047619  0.000000      1.000000
 -0.047619 -0.476190  0.000000      1.000000
  0.047619  0.476190  0.000000      1.000000
  0.476190  0.476190  0.000000      1.000000
 -0.476190 -0.476190  0.000000      1.000000
  0.095238  0.095238  0.000000      1.000000
 -0.095238 -0.095238  0.000000      1.000000
 -0.095238  0.190476  0.000000      1.000000
  0.095238 -0.190476  0.000000      1.000000
 -0.190476  0.095238  0.000000      1.000000
  0.190476 -0.095238  0.000000      1.000000
  0.142857  0.095238  0.000000      1.000000
 -0.142857 -0.095238  0.000000      1.000000
 -0.095238  0.238095  0.000000      1.000000
  0.095238 -0.238095  0.000000      1.000000
 -0.238095  0.142857  0.000000      1.000000
  0.238095 -0.142857  0.000000      1.000000
 -0.142857  0.238095  0.000000      1.000000
  0.142857 -0.238095  0.000000      1.000000
  0.095238  0.142857  0.000000      1.000000
 -0.095238 -0.142857  0.000000      1.000000
  0.238095 -0.095238  0.000000      1.000000
 -0.238095  0.095238  0.000000      1.000000
  0.190476  0.095238  0.000000      1.000000
 -0.190476 -0.095238  0.000000      1.000000
 -0.095238  0.285714  0.000000      1.000000
  0.095238 -0.285714  0.000000      1.000000
 -0.285714  0.190476  0.000000      1.000000
  0.285714 -0.190476  0.000000      1.000000
 -0.190476  0.285714  0.000000      1.000000
  0.190476 -0.285714  0.000000      1.000000
  0.095238  0.190476  0.000000      1.000000
 -0.095238 -0.190476  0.000000      1.000000
  0.285714 -0.095238  0.000000      1.000000
 -0.285714  0.095238  0.000000      1.000000
  0.238095  0.095238  0.000000      1.000000
 -0.238095 -0.095238  0.000000      1.000000
 -0.095238  0.333333  0.000000      1.000000
  0.095238 -0.333333  0.000000      1.000000
 -0.333333  0.238095  0.000000      1.000000
  0.333333 -0.238095  0.000000      1.000000
 -0.238095  0.333333  0.000000      1.000000
  0.238095 -0.333333  0.000000      1.000000
  0.095238  0.238095  0.000000      1.000000
 -0.095238 -0.238095  0.000000      1.000000
  0.333333 -0.095238  0.000000      1.000000
 -0.333333  0.095238  0.000000      1.000000
  0.285714  0.095238  0.000000      1.000000
 -0.285714 -0.095238  0.000000      1.000000
 -0.095238  0.380952  0.000000      1.000000
  0.095238 -0.380952  0.000000      1.000000
 -0.380952  0.285714  0.000000      1.000000
  0.380952 -0.285714  0.000000      1.000000
 -0.285714  0.380952  0.000000      1.000000
  0.285714 -0.380952  0.000000      1.000000
  0.095238  0.285714  0.000000      1.000000
 -0.095238 -0.285714  0.000000      1.000000
  0.380952 -0.095238  0.000000      1.000000
 -0.380952  0.095238  0.000000      1.000000
  0.333333  0.095238  0.000000      1.000000
 -0.333333 -0.095238  0.000000      1.000000
 -0.095238  0.428571  0.000000      1.000000
  0.095238 -0.428571  0.000000      1.000000
 -0.428571  0.333333  0.000000      1.000000
  0.428571 -0.333333  0.000000      1.000000
 -0.333333  0.428571  0.000000      1.000000
  0.333333 -0.428571  0.000000      1.000000
  0.095238  0.333333  0.000000      1.000000
 -0.095238 -0.333333  0.000000      1.000000
  0.428571 -0.095238  0.000000      1.000000
 -0.428571  0.095238  0.000000      1.000000
  0.380952  0.095238  0.000000      1.000000
 -0.380952 -0.095238  0.000000      1.000000
 -0.095238  0.476190  0.000000      1.000000
  0.095238 -0.476190  0.000000      1.000000
 -0.476190  0.380952  0.000000      1.000000
  0.476190 -0.380952  0.000000      1.000000
 -0.380952  0.476190  0.000000      1.000000
  0.380952 -0.476190  0.000000      1.000000
  0.095238  0.380952  0.000000      1.000000
 -0.095238 -0.380952  0.000000      1.000000
  0.476190 -0.095238  0.000000      1.000000
 -0.476190  0.095238  0.000000      1.000000
  0.428571  0.095238  0.000000      1.000000
 -0.428571 -0.095238  0.000000      1.000000
 -0.095238 -0.476190  0.000000      1.000000
  0.095238  0.476190  0.000000      1.000000
  0.476190  0.428571  0.000000      1.000000
 -0.476190 -0.428571  0.000000      1.000000
 -0.428571 -0.476190  0.000000      1.000000
  0.428571  0.476190  0.000000      1.000000
  0.095238  0.428571  0.000000      1.000000
 -0.095238 -0.428571  0.000000      1.000000
 -0.476190 -0.095238  0.000000      1.000000
  0.476190  0.095238  0.000000      1.000000
  0.142857  0.142857  0.000000      1.000000
 -0.142857 -0.142857  0.000000      1.000000
 -0.142857  0.285714  0.000000      1.000000
  0.142857 -0.285714  0.000000      1.000000
 -0.285714  0.142857  0.000000      1.000000
  0.285714 -0.142857  0.000000      1.000000
  0.190476  0.142857  0.000000      1.000000
 -0.190476 -0.142857  0.000000      1.000000
 -0.142857  0.333333  0.000000      1.000000
  0.142857 -0.333333  0.000000      1.000000
 -0.333333  0.190476  0.000000      1.000000
  0.333333 -0.190476  0.000000      1.000000
 -0.190476  0.333333  0.000000      1.000000
  0.190476 -0.333333  0.000000      1.000000
  0.142857  0.190476  0.000000      1.000000
 -0.142857 -0.190476  0.000000      1.000000
  0.333333 -0.142857  0.000000      1.000000
 -0.333333  0.142857  0.000000      1.000000
  0.238095  0.142857  0.000000      1.000000
 -0.238095 -0.142857  0.000000      1.000000
 -0.142857  0.380952  0.000000      1.000000
  0.142857 -0.380952  0.000000      1.000000
 -0.380952  0.238095  0.000000      1.000000
  0.380952 -0.238095  0.000000      1.000000
 -0.238095  0.380952  0.000000      1.000000
  0.238095 -0.380952  0.000000      1.000000
  0.142857  0.238095  0.000000      1.000000
 -0.142857 -0.238095  0.000000      1.000000
  0.380952 -0.142857  0.000000      1.000000
 -0.380952  0.142857  0.000000      1.000000
  0.285714  0.142857  0.000000      1.000000
 -0.285714 -0.142857  0.000000      1.000000
 -0.142857  0.428571  0.000000      1.000000
  0.142857 -0.428571  0.000000      1.000000
 -0.428571  0.285714  0.000000      1.000000
  0.428571 -0.285714  0.000000      1.000000
 -0.285714  0.428571  0.000000      1.000000
  0.285714 -0.428571  0.000000      1.000000
  0.142857  0.285714  0.000000      1.000000
 -0.142857 -0.285714  0.000000      1.000000
  0.428571 -0.142857  0.000000      1.000000
 -0.428571  0.142857  0.000000      1.000000
  0.333333  0.142857  0.000000      1.000000
 -0.333333 -0.142857  0.000000      1.000000
 -0.142857  0.476190  0.000000      1.000000
  0.142857 -0.476190  0.000000      1.000000
 -0.476190  0.333333  0.000000      1.000000
  0.476190 -0.333333  0.000000      1.000000
 -0.333333  0.476190  0.000000      1.000000
  0.333333 -0.476190  0.000000      1.000000
  0.142857  0.333333  0.000000      1.000000
 -0.142857 -0.333333  0.000000      1.000000
  0.476190 -0.142857  0.000000      1.000000
 -0.476190  0.142857  0.000000      1.000000
  0.380952  0.142857  0.000000      1.000000
 -0.380952 -0.142857  0.000000      1.000000
 -0.142857 -0.476190  0.000000      1.000000
  0.142857  0.476190  0.000000      1.000000
  0.476190  0.380952  0.000000      1.000000
 -0.476190 -0.380952  0.000000      1.000000
 -0.380952 -0.476190  0.000000      1.000000
  0.380952  0.476190  0.000000      1.000000
  0.142857  0.380952  0.000000      1.000000
 -0.142857 -0.380952  0.000000      1.000000
 -0.476190 -0.142857  0.000000      1.000000
  0.476190  0.142857  0.000000      1.000000
  0.428571  0.142857  0.000000      1.000000
 -0.428571 -0.142857  0.000000      1.000000
 -0.142857 -0.428571  0.000000      1.000000
  0.142857  0.428571  0.000000      1.000000
  0.428571  0.428571  0.000000      1.000000
 -0.428571 -0.428571  0.000000      1.000000
  0.190476  0.190476  0.000000      1.000000
 -0.190476 -0.190476  0.000000      1.000000
 -0.190476  0.380952  0.000000      1.000000
  0.190476 -0.380952  0.000000      1.000000
 -0.380952  0.190476  0.000000      1.000000
  0.380952 -0.190476  0.000000      1.000000
  0.238095  0.190476  0.000000      1.000000
 -0.238095 -0.190476  0.000000      1.000000
 -0.190476  0.428571  0.000000      1.000000
  0.190476 -0.428571  0.000000      1.000000
 -0.428571  0.238095  0.000000      1.000000
  0.428571 -0.238095  0.000000      1.000000
 -0.238095  0.428571  0.000000      1.000000
  0.238095 -0.428571  0.000000      1.000000
  0.190476  0.238095  0.000000      1.000000
 -0.190476 -0.238095  0.000000      1.000000
  0.428571 -0.190476  0.000000      1.000000
 -0.428571  0.190476  0.000000      1.000000
  0.285714  0.190476  0.000000      1.000000
 -0.285714 -0.190476  0.000000      1.000000
 -0.190476  0.476190  0.000000      1.000000
  0.190476 -0.476190  0.000000      1.000000
 -0.476190  0.285714  0.000000      1.000000
  0.476190 -0.285714  0.000000      1.000000
 -0.285714  0.476190  0.000000      1.000000
  0.285714 -0.476190  0.000000      1.000000
  0.190476  0.285714  0.000000      1.000000
 -0.190476 -0.285714  0.000000      1.000000
  0.476190 -0.190476  0.000000      1.000000
 -0.476190  0.190476  0.000000      1.000000
  0.333333  0.190476  0.000000      1.000000
 -0.333333 -0.190476  0.000000      1.000000
 -0.190476 -0.476190  0.000000      1.000000
  0.190476  0.476190  0.000000      1.000000
  0.476190  0.333333  0.000000      1.000000
 -0.476190 -0.333333  0.000000      1.000000
 -0.333333 -0.476190  0.000000      1.000000
  0.333333  0.476190  0.000000      1.000000
  0.190476  0.333333  0.000000      1.000000
 -0.190476 -0.333333  0.000000      1.000000
 -0.476190 -0.190476  0.000000      1.000000
  0.476190  0.190476  0.000000      1.000000
  0.380952  0.190476  0.000000      1.000000
 -0.380952 -0.190476  0.000000      1.000000
 -0.190476 -0.428571  0.000000      1.000000
  0.190476  0.428571  0.000000      1.000000
  0.428571  0.380952  0.000000      1.000000
 -0.428571 -0.380952  0.000000      1.000000
 -0.380952 -0.428571  0.000000      1.000000
  0.380952  0.428571  0.000000      1.000000
  0.190476  0.380952  0.000000      1.000000
 -0.190476 -0.380952  0.000000      1.000000
 -0.428571 -0.190476  0.000000      1.000000
  0.428571  0.190476  0.000000      1.000000
  0.238095  0.238095  0.000000      1.000000
 -0.238095 -0.238095  0.000000      1.000000
 -0.238095  0.476190  0.000000      1.000000
  0.238095 -0.476190  0.000000      1.000000
 -0.476190  0.238095  0.000000      1.000000
  0.476190 -0.238095  0.000000      1.000000
  0.285714  0.238095  0.000000      1.000000
 -0.285714 -0.238095  0.000000      1.000000
 -0.238095 -0.476190  0.000000      1.000000
  0.238095  0.476190  0.000000      1.000000
  0.476190  0.285714  0.000000      1.000000
 -0.476190 -0.285714  0.000000      1.000000
 -0.285714 -0.476190  0.000000      1.000000
  0.285714  0.476190  0.000000      1.000000
  0.238095  0.285714  0.000000      1.000000
 -0.238095 -0.285714  0.000000      1.000000
 -0.476190 -0.238095  0.000000      1.000000
  0.476190  0.238095  0.000000      1.000000
  0.333333  0.238095  0.000000      1.000000
 -0.333333 -0.238095  0.000000      1.000000
 -0.238095 -0.428571  0.000000      1.000000
  0.238095  0.428571  0.000000      1.000000
  0.428571  0.333333  0.000000      1.000000
 -0.428571 -0.333333  0.000000      1.000000
 -0.333333 -0.428571  0.000000      1.000000
  0.333333  0.428571  0.000000      1.000000
  0.238095  0.333333  0.000000      1.000000
 -0.238095 -0.333333  0.000000      1.000000
 -0.428571 -0.238095  0.000000      1.000000
  0.428571  0.238095  0.000000      1.000000
  0.380952  0.238095  0.000000      1.000000
 -0.380952 -0.238095  0.000000      1.000000
 -0.238095 -0.380952  0.000000      1.000000
  0.238095  0.380952  0.000000      1.000000
  0.380952  0.380952  0.000000      1.000000
 -0.380952 -0.380952  0.000000      1.000000
  0.285714  0.285714  0.000000      1.000000
 -0.285714 -0.285714  0.000000      1.000000
 -0.285714 -0.428571  0.000000      1.000000
  0.285714  0.428571  0.000000      1.000000
  0.428571  0.285714  0.000000      1.000000
 -0.428571 -0.285714  0.000000      1.000000
  0.333333  0.285714  0.000000      1.000000
 -0.333333 -0.285714  0.000000      1.000000
 -0.285714 -0.380952  0.000000      1.000000
  0.285714  0.380952  0.000000      1.000000
  0.380952  0.333333  0.000000      1.000000
 -0.380952 -0.333333  0.000000      1.000000
 -0.333333 -0.380952  0.000000      1.000000
  0.333333  0.380952  0.000000      1.000000
  0.285714  0.333333  0.000000      1.000000
 -0.285714 -0.333333  0.000000      1.000000
 -0.380952 -0.285714  0.000000      1.000000
  0.380952  0.285714  0.000000      1.000000
  0.333333  0.333333  0.000000      1.000000
 -0.333333 -0.333333  0.000000      1.000000
 
 Following cartesian coordinates:
            Coordinates               Weight
  0.000000  0.000000  0.000000      1.000000
  0.014343  0.008281  0.000000      1.000000
 -0.014343 -0.008281  0.000000      1.000000
  0.000000  0.016562  0.000000      1.000000
  0.000000 -0.016562  0.000000      1.000000
 -0.014343  0.008281  0.000000      1.000000
  0.014343 -0.008281  0.000000      1.000000
  0.028686  0.016562  0.000000      1.000000
 -0.028686 -0.016562  0.000000      1.000000
  0.000000  0.033124  0.000000      1.000000
  0.000000 -0.033124  0.000000      1.000000
 -0.028686  0.016562  0.000000      1.000000
  0.028686 -0.016562  0.000000      1.000000
  0.043029  0.024843  0.000000      1.000000
 -0.043029 -0.024843  0.000000      1.000000
  0.000000  0.049686  0.000000      1.000000
  0.000000 -0.049686  0.000000      1.000000
 -0.043029  0.024843  0.000000      1.000000
  0.043029 -0.024843  0.000000      1.000000
  0.057372  0.033124  0.000000      1.000000
 -0.057372 -0.033124  0.000000      1.000000
  0.000000  0.066248  0.000000      1.000000
  0.000000 -0.066248  0.000000      1.000000
 -0.057372  0.033124  0.000000      1.000000
  0.057372 -0.033124  0.000000      1.000000
  0.071715  0.041405  0.000000      1.000000
 -0.071715 -0.041405  0.000000      1.000000
  0.000000  0.082810  0.000000      1.000000
  0.000000 -0.082810  0.000000      1.000000
 -0.071715  0.041405  0.000000      1.000000
  0.071715 -0.041405  0.000000      1.000000
  0.086059  0.049686  0.000000      1.000000
 -0.086059 -0.049686  0.000000      1.000000
  0.000000  0.099372  0.000000      1.000000
  0.000000 -0.099372  0.000000      1.000000
 -0.086059  0.049686  0.000000      1.000000
  0.086059 -0.049686  0.000000      1.000000
  0.100402  0.057967  0.000000      1.000000
 -0.100402 -0.057967  0.000000      1.000000
  0.000000  0.115934  0.000000      1.000000
  0.000000 -0.115934  0.000000      1.000000
 -0.100402  0.057967  0.000000      1.000000
  0.100402 -0.057967  0.000000      1.000000
  0.114745  0.066248  0.000000      1.000000
 -0.114745 -0.066248  0.000000      1.000000
  0.000000  0.132496  0.000000      1.000000
  0.000000 -0.132496  0.000000      1.000000
 -0.114745  0.066248  0.000000      1.000000
  0.114745 -0.066248  0.000000      1.000000
  0.129088  0.074529  0.000000      1.000000
 -0.129088 -0.074529  0.000000      1.000000
  0.000000  0.149058  0.000000      1.000000
  0.000000 -0.149058  0.000000      1.000000
 -0.129088  0.074529  0.000000      1.000000
  0.129088 -0.074529  0.000000      1.000000
  0.143431  0.082810  0.000000      1.000000
 -0.143431 -0.082810  0.000000      1.000000
  0.000000  0.165620  0.000000      1.000000
  0.000000 -0.165620  0.000000      1.000000
 -0.143431  0.082810  0.000000      1.000000
  0.143431 -0.082810  0.000000      1.000000
  0.014343  0.024843  0.000000      1.000000
 -0.014343 -0.024843  0.000000      1.000000
 -0.014343  0.024843  0.000000      1.000000
  0.014343 -0.024843  0.000000      1.000000
 -0.028686  0.000000  0.000000      1.000000
  0.028686 -0.000000  0.000000      1.000000
  0.028686  0.033124  0.000000      1.000000
 -0.028686 -0.033124  0.000000      1.000000
 -0.014343  0.041405  0.000000      1.000000
  0.014343 -0.041405  0.000000      1.000000
 -0.043029  0.008281  0.000000      1.000000
  0.043029 -0.008281  0.000000      1.000000
 -0.028686  0.033124  0.000000      1.000000
  0.028686 -0.033124  0.000000      1.000000
  0.014343  0.041405  0.000000      1.000000
 -0.014343 -0.041405  0.000000      1.000000
  0.043029  0.008281  0.000000      1.000000
 -0.043029 -0.008281  0.000000      1.000000
  0.043029  0.041405  0.000000      1.000000
 -0.043029 -0.041405  0.000000      1.000000
 -0.014343  0.057967  0.000000      1.000000
  0.014343 -0.057967  0.000000      1.000000
 -0.057372  0.016562  0.000000      1.000000
  0.057372 -0.016562  0.000000      1.000000
 -0.043029  0.041405  0.000000      1.000000
  0.043029 -0.041405  0.000000      1.000000
  0.014343  0.057967  0.000000      1.000000
 -0.014343 -0.057967  0.000000      1.000000
  0.057372  0.016562  0.000000      1.000000
 -0.057372 -0.016562  0.000000      1.000000
  0.057372  0.049686  0.000000      1.000000
 -0.057372 -0.049686  0.000000      1.000000
 -0.014343  0.074529  0.000000      1.000000
  0.014343 -0.074529  0.000000      1.000000
 -0.071715  0.024843  0.000000      1.000000
  0.071715 -0.024843  0.000000      1.000000
 -0.057372  0.049686  0.000000      1.000000
  0.057372 -0.049686  0.000000      1.000000
  0.014343  0.074529  0.000000      1.000000
 -0.014343 -0.074529  0.000000      1.000000
  0.071715  0.024843  0.000000      1.000000
 -0.071715 -0.024843  0.000000      1.000000
  0.071715  0.057967  0.000000      1.000000
 -0.071715 -0.057967  0.000000      1.000000
 -0.014343  0.091091  0.000000      1.000000
  0.014343 -0.091091  0.000000      1.000000
 -0.086059  0.033124  0.000000      1.000000
  0.086059 -0.033124  0.000000      1.000000
 -0.071715  0.057967  0.000000      1.000000
  0.071715 -0.057967  0.000000      1.000000
  0.014343  0.091091  0.000000      1.000000
 -0.014343 -0.091091  0.000000      1.000000
  0.086059  0.033124  0.000000      1.000000
 -0.086059 -0.033124  0.000000      1.000000
  0.086059  0.066248  0.000000      1.000000
 -0.086059 -0.066248  0.000000      1.000000
 -0.014343  0.107653  0.000000      1.000000
  0.014343 -0.107653  0.000000      1.000000
 -0.100402  0.041405  0.000000      1.000000
  0.100402 -0.041405  0.000000      1.000000
 -0.086059  0.066248  0.000000      1.000000
  0.086059 -0.066248  0.000000      1.000000
  0.014343  0.107653  0.000000      1.000000
 -0.014343 -0.107653  0.000000      1.000000
  0.100402  0.041405  0.000000      1.000000
 -0.100402 -0.041405  0.000000      1.000000
  0.100402  0.074529  0.000000      1.000000
 -0.100402 -0.074529  0.000000      1.000000
 -0.014343  0.124215  0.000000      1.000000
  0.014343 -0.124215  0.000000      1.000000
 -0.114745  0.049686  0.000000      1.000000
  0.114745 -0.049686  0.000000      1.000000
 -0.100402  0.074529  0.000000      1.000000
  0.100402 -0.074529  0.000000      1.000000
  0.014343  0.124215  0.000000      1.000000
 -0.014343 -0.124215  0.000000      1.000000
  0.114745  0.049686  0.000000      1.000000
 -0.114745 -0.049686  0.000000      1.000000
  0.114745  0.082810  0.000000      1.000000
 -0.114745 -0.082810  0.000000      1.000000
 -0.014343  0.140777  0.000000      1.000000
  0.014343 -0.140777  0.000000      1.000000
 -0.129088  0.057967  0.000000      1.000000
  0.129088 -0.057967  0.000000      1.000000
 -0.114745  0.082810  0.000000      1.000000
  0.114745 -0.082810  0.000000      1.000000
  0.014343  0.140777  0.000000      1.000000
 -0.014343 -0.140777  0.000000      1.000000
  0.129088  0.057967  0.000000      1.000000
 -0.129088 -0.057967  0.000000      1.000000
  0.129088  0.091091  0.000000      1.000000
 -0.129088 -0.091091  0.000000      1.000000
 -0.014343  0.157339  0.000000      1.000000
  0.014343 -0.157339  0.000000      1.000000
 -0.143431  0.066248  0.000000      1.000000
  0.143431 -0.066248  0.000000      1.000000
 -0.129088  0.091091  0.000000      1.000000
  0.129088 -0.091091  0.000000      1.000000
  0.014343  0.157339  0.000000      1.000000
 -0.014343 -0.157339  0.000000      1.000000
  0.143431  0.066248  0.000000      1.000000
 -0.143431 -0.066248  0.000000      1.000000
  0.143431  0.099372  0.000000      1.000000
 -0.143431 -0.099372  0.000000      1.000000
 -0.014343 -0.173901  0.000000      1.000000
  0.014343  0.173901  0.000000      1.000000
  0.143431  0.248430  0.000000      1.000000
 -0.143431 -0.248430  0.000000      1.000000
  0.028686  0.049686  0.000000      1.000000
 -0.028686 -0.049686  0.000000      1.000000
 -0.028686  0.049686  0.000000      1.000000
  0.028686 -0.049686  0.000000      1.000000
 -0.057372 -0.000000  0.000000      1.000000
  0.057372  0.000000  0.000000      1.000000
  0.043029  0.057967  0.000000      1.000000
 -0.043029 -0.057967  0.000000      1.000000
 -0.028686  0.066248  0.000000      1.000000
  0.028686 -0.066248  0.000000      1.000000
 -0.071715  0.008281  0.000000      1.000000
  0.071715 -0.008281  0.000000      1.000000
 -0.043029  0.057967  0.000000      1.000000
  0.043029 -0.057967  0.000000      1.000000
  0.028686  0.066248  0.000000      1.000000
 -0.028686 -0.066248  0.000000      1.000000
  0.071715  0.008281  0.000000      1.000000
 -0.071715 -0.008281  0.000000      1.000000
  0.057372  0.066248  0.000000      1.000000
 -0.057372 -0.066248  0.000000      1.000000
 -0.028686  0.082810  0.000000      1.000000
  0.028686 -0.082810  0.000000      1.000000
 -0.086059  0.016562  0.000000      1.000000
  0.086059 -0.016562  0.000000      1.000000
 -0.057372  0.066248  0.000000      1.000000
  0.057372 -0.066248  0.000000      1.000000
  0.028686  0.082810  0.000000      1.000000
 -0.028686 -0.082810  0.000000      1.000000
  0.086059  0.016562  0.000000      1.000000
 -0.086059 -0.016562  0.000000      1.000000
  0.071715  0.074529  0.000000      1.000000
 -0.071715 -0.074529  0.000000      1.000000
 -0.028686  0.099372  0.000000      1.000000
  0.028686 -0.099372  0.000000      1.000000
 -0.100402  0.024843  0.000000      1.000000
  0.100402 -0.024843  0.000000      1.000000
 -0.071715  0.074529  0.000000      1.000000
  0.071715 -0.074529  0.000000      1.000000
  0.028686  0.099372  0.000000      1.000000
 -0.028686 -0.099372  0.000000      1.000000
  0.100402  0.024843  0.000000      1.000000
 -0.100402 -0.024843  0.000000      1.000000
  0.086059  0.082810  0.000000      1.000000
 -0.086059 -0.082810  0.000000      1.000000
 -0.028686  0.115934  0.000000      1.000000
  0.028686 -0.115934  0.000000      1.000000
 -0.114745  0.033124  0.000000      1.000000
  0.114745 -0.033124  0.000000      1.000000
 -0.086059  0.082810  0.000000      1.000000
  0.086059 -0.082810  0.000000      1.000000
  0.028686  0.115934  0.000000      1.000000
 -0.028686 -0.115934  0.000000      1.000000
  0.114745  0.033124  0.000000      1.000000
 -0.114745 -0.033124  0.000000      1.000000
  0.100402  0.091091  0.000000      1.000000
 -0.100402 -0.091091  0.000000      1.000000
 -0.028686  0.132496  0.000000      1.000000
  0.028686 -0.132496  0.000000      1.000000
 -0.129088  0.041405  0.000000      1.000000
  0.129088 -0.041405  0.000000      1.000000
 -0.100402  0.091091  0.000000      1.000000
  0.100402 -0.091091  0.000000      1.000000
  0.028686  0.132496  0.000000      1.000000
 -0.028686 -0.132496  0.000000      1.000000
  0.129088  0.041405  0.000000      1.000000
 -0.129088 -0.041405  0.000000      1.000000
  0.114745  0.099372  0.000000      1.000000
 -0.114745 -0.099372  0.000000      1.000000
 -0.028686  0.149058  0.000000      1.000000
  0.028686 -0.149058  0.000000      1.000000
 -0.143431  0.049686  0.000000      1.000000
  0.143431 -0.049686  0.000000      1.000000
 -0.114745  0.099372  0.000000      1.000000
  0.114745 -0.099372  0.000000      1.000000
  0.028686  0.149058  0.000000      1.000000
 -0.028686 -0.149058  0.000000      1.000000
  0.143431  0.049686  0.000000      1.000000
 -0.143431 -0.049686  0.000000      1.000000
  0.129088  0.107653  0.000000      1.000000
 -0.129088 -0.107653  0.000000      1.000000
 -0.028686 -0.182182  0.000000      1.000000
  0.028686  0.182182  0.000000      1.000000
  0.143431  0.231868  0.000000      1.000000
 -0.143431 -0.231868  0.000000      1.000000
 -0.129088 -0.240149  0.000000      1.000000
  0.129088  0.240149  0.000000      1.000000
  0.028686  0.165620  0.000000      1.000000
 -0.028686 -0.165620  0.000000      1.000000
 -0.143431 -0.115934  0.000000      1.000000
  0.143431  0.115934  0.000000      1.000000
  0.043029  0.074529  0.000000      1.000000
 -0.043029 -0.074529  0.000000      1.000000
 -0.043029  0.074529  0.000000      1.000000
  0.043029 -0.074529  0.000000      1.000000
 -0.086059 -0.000000  0.000000      1.000000
  0.086059  0.000000  0.000000      1.000000
  0.057372  0.082810  0.000000      1.000000
 -0.057372 -0.082810  0.000000      1.000000
 -0.043029  0.091091  0.000000      1.000000
  0.043029 -0.091091  0.000000      1.000000
 -0.100402  0.008281  0.000000      1.000000
  0.100402 -0.008281  0.000000      1.000000
 -0.057372  0.082810  0.000000      1.000000
  0.057372 -0.082810  0.000000      1.000000
  0.043029  0.091091  0.000000      1.000000
 -0.043029 -0.091091  0.000000      1.000000
  0.100402  0.008281  0.000000      1.000000
 -0.100402 -0.008281  0.000000      1.000000
  0.071715  0.091091  0.000000      1.000000
 -0.071715 -0.091091  0.000000      1.000000
 -0.043029  0.107653  0.000000      1.000000
  0.043029 -0.107653  0.000000      1.000000
 -0.114745  0.016562  0.000000      1.000000
  0.114745 -0.016562  0.000000      1.000000
 -0.071715  0.091091  0.000000      1.000000
  0.071715 -0.091091  0.000000      1.000000
  0.043029  0.107653  0.000000      1.000000
 -0.043029 -0.107653  0.000000      1.000000
  0.114745  0.016562  0.000000      1.000000
 -0.114745 -0.016562  0.000000      1.000000
  0.086059  0.099372  0.000000      1.000000
 -0.086059 -0.099372  0.000000      1.000000
 -0.043029  0.124215  0.000000      1.000000
  0.043029 -0.124215  0.000000      1.000000
 -0.129088  0.024843  0.000000      1.000000
  0.129088 -0.024843  0.000000      1.000000
 -0.086059  0.099372  0.000000      1.000000
  0.086059 -0.099372  0.000000      1.000000
  0.043029  0.124215  0.000000      1.000000
 -0.043029 -0.124215  0.000000      1.000000
  0.129088  0.024843  0.000000      1.000000
 -0.129088 -0.024843  0.000000      1.000000
  0.100402  0.107653  0.000000      1.000000
 -0.100402 -0.107653  0.000000      1.000000
 -0.043029  0.140777  0.000000      1.000000
  0.043029 -0.140777  0.000000      1.000000
 -0.143431  0.033124  0.000000      1.000000
  0.143431 -0.033124  0.000000      1.000000
 -0.100402  0.107653  0.000000      1.000000
  0.100402 -0.107653  0.000000      1.000000
  0.043029  0.140777  0.000000      1.000000
 -0.043029 -0.140777  0.000000      1.000000
  0.143431  0.033124  0.000000      1.000000
 -0.143431 -0.033124  0.000000      1.000000
  0.114745  0.115934  0.000000      1.000000
 -0.114745 -0.115934  0.000000      1.000000
 -0.043029 -0.190463  0.000000      1.000000
  0.043029  0.190463  0.000000      1.000000
  0.143431  0.215306  0.000000      1.000000
 -0.143431 -0.215306  0.000000      1.000000
 -0.114745 -0.231868  0.000000      1.000000
  0.114745  0.231868  0.000000      1.000000
  0.043029  0.157339  0.000000      1.000000
 -0.043029 -0.157339  0.000000      1.000000
 -0.143431 -0.132496  0.000000      1.000000
  0.143431  0.132496  0.000000      1.000000
  0.129088  0.124215  0.000000      1.000000
 -0.129088 -0.124215  0.000000      1.000000
 -0.043029 -0.173901  0.000000      1.000000
  0.043029  0.173901  0.000000      1.000000
  0.129088  0.223587  0.000000      1.000000
 -0.129088 -0.223587  0.000000      1.000000
  0.057372  0.099372  0.000000      1.000000
 -0.057372 -0.099372  0.000000      1.000000
 -0.057372  0.099372  0.000000      1.000000
  0.057372 -0.099372  0.000000      1.000000
 -0.114745 -0.000000  0.000000      1.000000
  0.114745  0.000000  0.000000      1.000000
  0.071715  0.107653  0.000000      1.000000
 -0.071715 -0.107653  0.000000      1.000000
 -0.057372  0.115934  0.000000      1.000000
  0.057372 -0.115934  0.000000      1.000000
 -0.129088  0.008281  0.000000      1.000000
  0.129088 -0.008281  0.000000      1.000000
 -0.071715  0.107653  0.000000      1.000000
  0.071715 -0.107653  0.000000      1.000000
  0.057372  0.115934  0.000000      1.000000
 -0.057372 -0.115934  0.000000      1.000000
  0.129088  0.008281  0.000000      1.000000
 -0.129088 -0.008281  0.000000      1.000000
  0.086059  0.115934  0.000000      1.000000
 -0.086059 -0.115934  0.000000      1.000000
 -0.057372  0.132496  0.000000      1.000000
  0.057372 -0.132496  0.000000      1.000000
 -0.143431  0.016562  0.000000      1.000000
  0.143431 -0.016562  0.000000      1.000000
 -0.086059  0.115934  0.000000      1.000000
  0.086059 -0.115934  0.000000      1.000000
  0.057372  0.132496  0.000000      1.000000
 -0.057372 -0.132496  0.000000      1.000000
  0.143431  0.016562  0.000000      1.000000
 -0.143431 -0.016562  0.000000      1.000000
  0.100402  0.124215  0.000000      1.000000
 -0.100402 -0.124215  0.000000      1.000000
 -0.057372 -0.198744  0.000000      1.000000
  0.057372  0.198744  0.000000      1.000000
  0.143431  0.198744  0.000000      1.000000
 -0.143431 -0.198744  0.000000      1.000000
 -0.100402 -0.223587  0.000000      1.000000
  0.100402  0.223587  0.000000      1.000000
  0.057372  0.149058  0.000000      1.000000
 -0.057372 -0.149058  0.000000      1.000000
 -0.143431 -0.149058  0.000000      1.000000
  0.143431  0.149058  0.000000      1.000000
  0.114745  0.132496  0.000000      1.000000
 -0.114745 -0.132496  0.000000      1.000000
 -0.057372 -0.182182  0.000000      1.000000
  0.057372  0.182182  0.000000      1.000000
  0.129088  0.207025  0.000000      1.000000
 -0.129088 -0.207025  0.000000      1.000000
 -0.114745 -0.215306  0.000000      1.000000
  0.114745  0.215306  0.000000      1.000000
  0.057372  0.165620  0.000000      1.000000
 -0.057372 -0.165620  0.000000      1.000000
 -0.129088 -0.140777  0.000000      1.000000
  0.129088  0.140777  0.000000      1.000000
  0.071715  0.124215  0.000000      1.000000
 -0.071715 -0.124215  0.000000      1.000000
 -0.071715  0.124215  0.000000      1.000000
  0.071715 -0.124215  0.000000      1.000000
 -0.143431  0.000000  0.000000      1.000000
  0.143431 -0.000000  0.000000      1.000000
  0.086059  0.132496  0.000000      1.000000
 -0.086059 -0.132496  0.000000      1.000000
 -0.071715 -0.207025  0.000000      1.000000
  0.071715  0.207025  0.000000      1.000000
  0.143431  0.182182  0.000000      1.000000
 -0.143431 -0.182182  0.000000      1.000000
 -0.086059 -0.215306  0.000000      1.000000
  0.086059  0.215306  0.000000      1.000000
  0.071715  0.140777  0.000000      1.000000
 -0.071715 -0.140777  0.000000      1.000000
 -0.143431 -0.165620  0.000000      1.000000
  0.143431  0.165620  0.000000      1.000000
  0.100402  0.140777  0.000000      1.000000
 -0.100402 -0.140777  0.000000      1.000000
 -0.071715 -0.190463  0.000000      1.000000
  0.071715  0.190463  0.000000      1.000000
  0.129088  0.190463  0.000000      1.000000
 -0.129088 -0.190463  0.000000      1.000000
 -0.100402 -0.207025  0.000000      1.000000
  0.100402  0.207025  0.000000      1.000000
  0.071715  0.157339  0.000000      1.000000
 -0.071715 -0.157339  0.000000      1.000000
 -0.129088 -0.157339  0.000000      1.000000
  0.129088  0.157339  0.000000      1.000000
  0.114745  0.149058  0.000000      1.000000
 -0.114745 -0.149058  0.000000      1.000000
 -0.071715 -0.173901  0.000000      1.000000
  0.071715  0.173901  0.000000      1.000000
  0.114745  0.198744  0.000000      1.000000
 -0.114745 -0.198744  0.000000      1.000000
  0.086059  0.149058  0.000000      1.000000
 -0.086059 -0.149058  0.000000      1.000000
 -0.086059 -0.198744  0.000000      1.000000
  0.086059  0.198744  0.000000      1.000000
  0.129088  0.173901  0.000000      1.000000
 -0.129088 -0.173901  0.000000      1.000000
  0.100402  0.157339  0.000000      1.000000
 -0.100402 -0.157339  0.000000      1.000000
 -0.086059 -0.182182  0.000000      1.000000
  0.086059  0.182182  0.000000      1.000000
  0.114745  0.182182  0.000000      1.000000
 -0.114745 -0.182182  0.000000      1.000000
 -0.100402 -0.190463  0.000000      1.000000
  0.100402  0.190463  0.000000      1.000000
  0.086059  0.165620  0.000000      1.000000
 -0.086059 -0.165620  0.000000      1.000000
 -0.114745 -0.165620  0.000000      1.000000
  0.114745  0.165620  0.000000      1.000000
  0.100402  0.173901  0.000000      1.000000
 -0.100402 -0.173901  0.000000      1.000000
 


--------------------------------------------------------------------------------------------------------




 Dimension of arrays:
   k-points           NKPTS =    441   k-points in BZ     NKDIM =    441   number of bands    NBANDS=     32
   number of dos      NEDOS =    301   number of ions     NIONS =      3
   non local maximal  LDIM  =      6   non local SUM 2l+1 LMDIM =     18
   total plane-waves  NPLWV =  20480
   max r-space proj   IRMAX =      1   max aug-charges    IRDMAX=   9382
   dimension x,y,z NGX =    16 NGY =   16 NGZ =   80
   dimension x,y,z NGXF=    32 NGYF=   32 NGZF=  160
   support grid    NGXF=    32 NGYF=   32 NGZF=  160
   ions per type =               1   2
   NGX,Y,Z   is equivalent  to a cutoff of   8.01,  8.01,  8.87 a.u.
   NGXF,Y,Z  is equivalent  to a cutoff of  16.02, 16.02, 17.73 a.u.

 SYSTEM =  MoSe2                                   
 POSCAR =  Mo  S                                   

 Startparameter for this run:
   NWRITE =      1    write-flag & timer
   PREC   = accura    normal or accurate (medium, high low for compatibility)
   ISTART =      0    job   : 0-new  1-cont  2-samecut
   ICHARG =      1    charge: 1-file 2-atom 10-const
   ISPIN  =      1    spin polarized calculation?
   LNONCOLLINEAR =      T non collinear calculations
   LSORBIT =      T    spin-orbit coupling
   INIWAV =      1    electr: 0-lowe 1-rand  2-diag
   LASPH  =      F    aspherical Exc in radial PAW
 Electronic Relaxation 1
   ENCUT  =  224.6 eV  16.51 Ry    4.06 a.u.   4.06  4.06 18.33*2*pi/ulx,y,z
   ENINI  =  224.6     initial cutoff
   ENAUG  =  446.8 eV  augmentation charge cutoff
   NELM   =    200;   NELMIN=  4; NELMDL= -5     # of ELM steps 
   EDIFF  = 0.1E-05   stopping-criterion for ELM
   LREAL  =      F    real-space projection
   NLSPLINE    = F    spline interpolate recip. space projectors
   LCOMPAT=      F    compatible to vasp.4.4
   GGA_COMPAT  = T    GGA compatible to vasp.4.4-vasp.4.6
   LMAXPAW     = -100 max onsite density
   LMAXMIX     =    2 max onsite mixed and CHGCAR
   VOSKOWN=      0    Vosko Wilk Nusair interpolation
   ROPT   =    0.00000   0.00000
 Ionic relaxation
   EDIFFG = 0.1E-04   stopping-criterion for IOM
   NSW    =      0    number of steps for IOM
   NBLOCK =      1;   KBLOCK =      1    inner block; outer block 
   IBRION =     -1    ionic relax: 0-MD 1-quasi-New 2-CG
   NFREE  =      0    steps in history (QN), initial steepest desc. (CG)
   ISIF   =      2    stress and relaxation
   IWAVPR =     10    prediction:  0-non 1-charg 2-wave 3-comb
   ISYM   =      2    0-nonsym 1-usesym 2-fastsym
   LCORR  =      T    Harris-Foulkes like correction to forces

   POTIM  = 0.5000    time-step for ionic-motion
   TEIN   =    0.0    initial temperature
   TEBEG  =    0.0;   TEEND  =   0.0 temperature during run
   SMASS  =  -3.00    Nose mass-parameter (am)
   estimated Nose-frequenzy (Omega)   =  0.10E-29 period in steps = 0.13E+47 mass=  -0.252E-27a.u.
   SCALEE = 1.0000    scale energy and forces
   NPACO  =    256;   APACO  = 10.0  distance and # of slots for P.C.
   PSTRESS=    0.0 pullay stress

  Mass of Ions in am
   POMASS =  95.94 78.96
  Ionic Valenz
   ZVAL   =   6.00  6.00
  Atomic Wigner-Seitz radii
   RWIGS  =  -1.00 -1.00
  virtual crystal weights 
   VCA    =   1.00  1.00
   NELECT =      18.0000    total number of electrons
   NUPDOWN=      -1.0000    fix difference up-down

 DOS related values:
   EMIN   =  10.00;   EMAX   =-10.00  energy-range for DOS
   EFERMI =   0.00
   ISMEAR =     0;   SIGMA  =   0.10  broadening in eV -4-tet -1-fermi 0-gaus

 Electronic relaxation 2 (details)
   IALGO  =     38    algorithm
   LDIAG  =      T    sub-space diagonalisation (order eigenvalues)
   LSUBROT=      F    optimize rotation matrix (better conditioning)
   TURBO    =      0    0=normal 1=particle mesh
   IRESTART =      0    0=no restart 2=restart with 2 vectors
   NREBOOT  =      0    no. of reboots
   NMIN     =      0    reboot dimension
   EREF     =   0.00    reference energy to select bands
   IMIX   =      4    mixing-type and parameters
     AMIX     =   0.40;   BMIX     =  1.00
     AMIX_MAG =   1.60;   BMIX_MAG =  1.00
     AMIN     =   0.10
     WC   =   100.;   INIMIX=   1;  MIXPRE=   1;  MAXMIX= -45

 Intra band minimization:
   WEIMIN = 0.0000     energy-eigenvalue tresh-hold
   EBREAK =  0.78E-08  absolut break condition
   DEPER  =   0.30     relativ break condition  

   TIME   =   0.40     timestep for ELM

  volume/ion in A,a.u.               =      47.73       322.09
  Fermi-wavevector in a.u.,A,eV,Ry     =   0.820099  1.549763  9.150768  0.672562
  Thomas-Fermi vector in A             =   1.931021
 
 Write flags
   LWAVE        =      T    write WAVECAR
   LDOWNSAMPLE  =      F    k-point downsampling of WAVECAR
   LCHARG       =      T    write CHGCAR
   LVTOT        =      F    write LOCPOT, total local potential
   LVHAR        =      F    write LOCPOT, Hartree potential only
   LELF         =      F    write electronic localiz. function (ELF)
   LORBIT       =     11    0 simple, 1 ext, 2 COOP (PROOUT), +10 PAW based schemes


 Dipole corrections
   LMONO  =      F    monopole corrections only (constant potential shift)
   LDIPOL =      F    correct potential (dipole corrections)
   IDIPOL =      0    1-x, 2-y, 3-z, 4-all directions 
   EPSILON=  1.0000000 bulk dielectric constant

 Exchange correlation treatment:
   GGA     =    --    GGA type
   LEXCH   =     8    internal setting for exchange type
   LIBXC   =     F    Libxc                    
   VOSKOWN =     0    Vosko Wilk Nusair interpolation
   LHFCALC =     F    Hartree Fock is set to
   LHFONE  =     F    Hartree Fock one center treatment
   AEXX    =    0.0000 exact exchange contribution

 Linear response parameters
   LEPSILON=     F    determine dielectric tensor
   LRPA    =     F    only Hartree local field effects (RPA)
   LNABLA  =     F    use nabla operator in PAW spheres
   LVEL    =     F    velocity operator in full k-point grid
   CSHIFT  =0.1000    complex shift for real part using Kramers Kronig
   OMEGAMAX=  -1.0    maximum frequency
   DEG_THRESHOLD= 0.2000000E-02 threshold for treating states as degnerate
   RTIME   =   -0.100 relaxation time in fs
  (WPLASMAI=    0.000 imaginary part of plasma frequency in eV, 0.658/RTIME)
   DFIELD  = 0.0000000 0.0000000 0.0000000 field for delta impulse in time
 
  Optional k-point grid parameters
   LKPOINTS_OPT  =     F    use optional k-point grid
   KPOINTS_OPT_MODE=     1    mode for optional k-point grid
 
 Orbital magnetization related:
   ORBITALMAG=     F  switch on orbital magnetization
   LCHIMAG   =     F  perturbation theory with respect to B field
   DQ        =  0.001000  dq finite difference perturbation B field
   LLRAUG    =     F  two centre corrections for induced B field



--------------------------------------------------------------------------------------------------------


 Static calculation
 charge density and potential will be updated during run
 non collinear spin polarized calculation
 Variant of blocked Davidson
 Davidson routine will perform the subspace rotation
 perform sub-space diagonalisation
    after iterative eigenvector-optimisation
 modified Broyden-mixing scheme, WC =      100.0
 initial mixing is a Kerker type mixing with AMIX =  0.4000 and BMIX =      1.0000
 Hartree-type preconditioning will be used
 using additional bands           23
 reciprocal scheme for non local part
 use partial core corrections
 calculate Harris-corrections to forces 
   (improved forces if not selfconsistent)
 use gradient corrections 
 use of overlap-Matrix (Vanderbilt PP)
 Gauss-broadening in eV      SIGMA  =   0.10


--------------------------------------------------------------------------------------------------------


  energy-cutoff  :      224.58
  volume of cell :      143.19
      direct lattice vectors                 reciprocal lattice vectors
     3.320000000  0.000000000  0.000000000     0.301204819  0.173900683  0.000000000
    -1.660000000  2.875204341  0.000000000     0.000000000  0.347801367  0.000000000
     0.000000000  0.000000000 15.000000000     0.000000000  0.000000000  0.066666667

  length of vectors
     3.320000000  3.320000000 15.000000000     0.347801367  0.347801367  0.066666667


 
 k-points in units of 2pi/SCALE and weight: Automatic mesh                          
   0.00000000  0.00000000  0.00000000       0.002
   0.01434309  0.00828098  0.00000000       0.002
  -0.01434309 -0.00828098  0.00000000       0.002
   0.00000000  0.01656197  0.00000000       0.002
   0.00000000 -0.01656197  0.00000000       0.002
  -0.01434309  0.00828098  0.00000000       0.002
   0.01434309 -0.00828098  0.00000000       0.002
   0.02868617  0.01656197  0.00000000       0.002
  -0.02868617 -0.01656197  0.00000000       0.002
   0.00000000  0.03312394  0.00000000       0.002
   0.00000000 -0.03312394  0.00000000       0.002
  -0.02868617  0.01656197  0.00000000       0.002
   0.02868617 -0.01656197  0.00000000       0.002
   0.04302926  0.02484295  0.00000000       0.002
  -0.04302926 -0.02484295  0.00000000       0.002
   0.00000000  0.04968591  0.00000000       0.002
   0.00000000 -0.04968591  0.00000000       0.002
  -0.04302926  0.02484295  0.00000000       0.002
   0.04302926 -0.02484295  0.00000000       0.002
   0.05737235  0.03312394  0.00000000       0.002
  -0.05737235 -0.03312394  0.00000000       0.002
   0.00000000  0.06624788  0.00000000       0.002
   0.00000000 -0.06624788  0.00000000       0.002
  -0.05737235  0.03312394  0.00000000       0.002
   0.05737235 -0.03312394  0.00000000       0.002
   0.07171543  0.04140492  0.00000000       0.002
  -0.07171543 -0.04140492  0.00000000       0.002
   0.00000000  0.08280985  0.00000000       0.002
   0.00000000 -0.08280985  0.00000000       0.002
  -0.07171543  0.04140492  0.00000000       0.002
   0.07171543 -0.04140492  0.00000000       0.002
   0.08605852  0.04968591  0.00000000       0.002
  -0.08605852 -0.04968591  0.00000000       0.002
   0.00000000  0.09937182  0.00000000       0.002
   0.00000000 -0.09937182  0.00000000       0.002
  -0.08605852  0.04968591  0.00000000       0.002
   0.08605852 -0.04968591  0.00000000       0.002
   0.10040161  0.05796689  0.00000000       0.002
  -0.10040161 -0.05796689  0.00000000       0.002
   0.00000000  0.11593379  0.00000000       0.002
   0.00000000 -0.11593379  0.00000000       0.002
  -0.10040161  0.05796689  0.00000000       0.002
   0.10040161 -0.05796689  0.00000000       0.002
   0.11474469  0.06624788  0.00000000       0.002
  -0.11474469 -0.06624788  0.00000000       0.002
   0.00000000  0.13249576  0.00000000       0.002
   0.00000000 -0.13249576  0.00000000       0.002
  -0.11474469  0.06624788  0.00000000       0.002
   0.11474469 -0.06624788  0.00000000       0.002
   0.12908778  0.07452886  0.00000000       0.002
  -0.12908778 -0.07452886  0.00000000       0.002
   0.00000000  0.14905773  0.00000000       0.002
   0.00000000 -0.14905773  0.00000000       0.002
  -0.12908778  0.07452886  0.00000000       0.002
   0.12908778 -0.07452886  0.00000000       0.002
   0.14343087  0.08280985  0.00000000       0.002
  -0.14343087 -0.08280985  0.00000000       0.002
   0.00000000  0.16561970  0.00000000       0.002
   0.00000000 -0.16561970  0.00000000       0.002
  -0.14343087  0.08280985  0.00000000       0.002
   0.14343087 -0.08280985  0.00000000       0.002
   0.01434309  0.02484295  0.00000000       0.002
  -0.01434309 -0.02484295  0.00000000       0.002
  -0.01434309  0.02484295  0.00000000       0.002
   0.01434309 -0.02484295  0.00000000       0.002
  -0.02868617 -0.00000000  0.00000000       0.002
   0.02868617  0.00000000  0.00000000       0.002
   0.02868617  0.03312394  0.00000000       0.002
  -0.02868617 -0.03312394  0.00000000       0.002
  -0.01434309  0.04140492  0.00000000       0.002
   0.01434309 -0.04140492  0.00000000       0.002
  -0.04302926  0.00828098  0.00000000       0.002
   0.04302926 -0.00828098  0.00000000       0.002
  -0.02868617  0.03312394  0.00000000       0.002
   0.02868617 -0.03312394  0.00000000       0.002
   0.01434309  0.04140492  0.00000000       0.002
  -0.01434309 -0.04140492  0.00000000       0.002
   0.04302926  0.00828098  0.00000000       0.002
  -0.04302926 -0.00828098  0.00000000       0.002
   0.04302926  0.04140492  0.00000000       0.002
  -0.04302926 -0.04140492  0.00000000       0.002
  -0.01434309  0.05796689  0.00000000       0.002
   0.01434309 -0.05796689  0.00000000       0.002
  -0.05737235  0.01656197  0.00000000       0.002
   0.05737235 -0.01656197  0.00000000       0.002
  -0.04302926  0.04140492  0.00000000       0.002
   0.04302926 -0.04140492  0.00000000       0.002
   0.01434309  0.05796689  0.00000000       0.002
  -0.01434309 -0.05796689  0.00000000       0.002
   0.05737235  0.01656197  0.00000000       0.002
  -0.05737235 -0.01656197  0.00000000       0.002
   0.05737235  0.04968591  0.00000000       0.002
  -0.05737235 -0.04968591  0.00000000       0.002
  -0.01434309  0.07452886  0.00000000       0.002
   0.01434309 -0.07452886  0.00000000       0.002
  -0.07171543  0.02484295  0.00000000       0.002
   0.07171543 -0.02484295  0.00000000       0.002
  -0.05737235  0.04968591  0.00000000       0.002
   0.05737235 -0.04968591  0.00000000       0.002
   0.01434309  0.07452886  0.00000000       0.002
  -0.01434309 -0.07452886  0.00000000       0.002
   0.07171543  0.02484295  0.00000000       0.002
  -0.07171543 -0.02484295  0.00000000       0.002
   0.07171543  0.05796689  0.00000000       0.002
  -0.07171543 -0.05796689  0.00000000       0.002
  -0.01434309  0.09109083  0.00000000       0.002
   0.01434309 -0.09109083  0.00000000       0.002
  -0.08605852  0.03312394  0.00000000       0.002
   0.08605852 -0.03312394  0.00000000       0.002
  -0.07171543  0.05796689  0.00000000       0.002
   0.07171543 -0.05796689  0.00000000       0.002
   0.01434309  0.09109083  0.00000000       0.002
  -0.01434309 -0.09109083  0.00000000       0.002
   0.08605852  0.03312394  0.00000000       0.002
  -0.08605852 -0.03312394  0.00000000       0.002
   0.08605852  0.06624788  0.00000000       0.002
  -0.08605852 -0.06624788  0.00000000       0.002
  -0.01434309  0.10765280  0.00000000       0.002
   0.01434309 -0.10765280  0.00000000       0.002
  -0.10040161  0.04140492  0.00000000       0.002
   0.10040161 -0.04140492  0.00000000       0.002
  -0.08605852  0.06624788  0.00000000       0.002
   0.08605852 -0.06624788  0.00000000       0.002
   0.01434309  0.10765280  0.00000000       0.002
  -0.01434309 -0.10765280  0.00000000       0.002
   0.10040161  0.04140492  0.00000000       0.002
  -0.10040161 -0.04140492  0.00000000       0.002
   0.10040161  0.07452886  0.00000000       0.002
  -0.10040161 -0.07452886  0.00000000       0.002
  -0.01434309  0.12421477  0.00000000       0.002
   0.01434309 -0.12421477  0.00000000       0.002
  -0.11474469  0.04968591  0.00000000       0.002
   0.11474469 -0.04968591  0.00000000       0.002
  -0.10040161  0.07452886  0.00000000       0.002
   0.10040161 -0.07452886  0.00000000       0.002
   0.01434309  0.12421477  0.00000000       0.002
  -0.01434309 -0.12421477  0.00000000       0.002
   0.11474469  0.04968591  0.00000000       0.002
  -0.11474469 -0.04968591  0.00000000       0.002
   0.11474469  0.08280985  0.00000000       0.002
  -0.11474469 -0.08280985  0.00000000       0.002
  -0.01434309  0.14077674  0.00000000       0.002
   0.01434309 -0.14077674  0.00000000       0.002
  -0.12908778  0.05796689  0.00000000       0.002
   0.12908778 -0.05796689  0.00000000       0.002
  -0.11474469  0.08280985  0.00000000       0.002
   0.11474469 -0.08280985  0.00000000       0.002
   0.01434309  0.14077674  0.00000000       0.002
  -0.01434309 -0.14077674  0.00000000       0.002
   0.12908778  0.05796689  0.00000000       0.002
  -0.12908778 -0.05796689  0.00000000       0.002
   0.12908778  0.09109083  0.00000000       0.002
  -0.12908778 -0.09109083  0.00000000       0.002
  -0.01434309  0.15733871  0.00000000       0.002
   0.01434309 -0.15733871  0.00000000       0.002
  -0.14343087  0.06624788  0.00000000       0.002
   0.14343087 -0.06624788  0.00000000       0.002
  -0.12908778  0.09109083  0.00000000       0.002
   0.12908778 -0.09109083  0.00000000       0.002
   0.01434309  0.15733871  0.00000000       0.002
  -0.01434309 -0.15733871  0.00000000       0.002
   0.14343087  0.06624788  0.00000000       0.002
  -0.14343087 -0.06624788  0.00000000       0.002
   0.14343087  0.09937182  0.00000000       0.002
  -0.14343087 -0.09937182  0.00000000       0.002
  -0.01434309 -0.17390068  0.00000000       0.002
   0.01434309  0.17390068  0.00000000       0.002
   0.14343087  0.24842955  0.00000000       0.002
  -0.14343087 -0.24842955  0.00000000       0.002
   0.02868617  0.04968591  0.00000000       0.002
  -0.02868617 -0.04968591  0.00000000       0.002
  -0.02868617  0.04968591  0.00000000       0.002
   0.02868617 -0.04968591  0.00000000       0.002
  -0.05737235 -0.00000000  0.00000000       0.002
   0.05737235  0.00000000  0.00000000       0.002
   0.04302926  0.05796689  0.00000000       0.002
  -0.04302926 -0.05796689  0.00000000       0.002
  -0.02868617  0.06624788  0.00000000       0.002
   0.02868617 -0.06624788  0.00000000       0.002
  -0.07171543  0.00828098  0.00000000       0.002
   0.07171543 -0.00828098  0.00000000       0.002
  -0.04302926  0.05796689  0.00000000       0.002
   0.04302926 -0.05796689  0.00000000       0.002
   0.02868617  0.06624788  0.00000000       0.002
  -0.02868617 -0.06624788  0.00000000       0.002
   0.07171543  0.00828098  0.00000000       0.002
  -0.07171543 -0.00828098  0.00000000       0.002
   0.05737235  0.06624788  0.00000000       0.002
  -0.05737235 -0.06624788  0.00000000       0.002
  -0.02868617  0.08280985  0.00000000       0.002
   0.02868617 -0.08280985  0.00000000       0.002
  -0.08605852  0.01656197  0.00000000       0.002
   0.08605852 -0.01656197  0.00000000       0.002
  -0.05737235  0.06624788  0.00000000       0.002
   0.05737235 -0.06624788  0.00000000       0.002
   0.02868617  0.08280985  0.00000000       0.002
  -0.02868617 -0.08280985  0.00000000       0.002
   0.08605852  0.01656197  0.00000000       0.002
  -0.08605852 -0.01656197  0.00000000       0.002
   0.07171543  0.07452886  0.00000000       0.002
  -0.07171543 -0.07452886  0.00000000       0.002
  -0.02868617  0.09937182  0.00000000       0.002
   0.02868617 -0.09937182  0.00000000       0.002
  -0.10040161  0.02484295  0.00000000       0.002
   0.10040161 -0.02484295  0.00000000       0.002
  -0.07171543  0.07452886  0.00000000       0.002
   0.07171543 -0.07452886  0.00000000       0.002
   0.02868617  0.09937182  0.00000000       0.002
  -0.02868617 -0.09937182  0.00000000       0.002
   0.10040161  0.02484295  0.00000000       0.002
  -0.10040161 -0.02484295  0.00000000       0.002
   0.08605852  0.08280985  0.00000000       0.002
  -0.08605852 -0.08280985  0.00000000       0.002
  -0.02868617  0.11593379  0.00000000       0.002
   0.02868617 -0.11593379  0.00000000       0.002
  -0.11474469  0.03312394  0.00000000       0.002
   0.11474469 -0.03312394  0.00000000       0.002
  -0.08605852  0.08280985  0.00000000       0.002
   0.08605852 -0.08280985  0.00000000       0.002
   0.02868617  0.11593379  0.00000000       0.002
  -0.02868617 -0.11593379  0.00000000       0.002
   0.11474469  0.03312394  0.00000000       0.002
  -0.11474469 -0.03312394  0.00000000       0.002
   0.10040161  0.09109083  0.00000000       0.002
  -0.10040161 -0.09109083  0.00000000       0.002
  -0.02868617  0.13249576  0.00000000       0.002
   0.02868617 -0.13249576  0.00000000       0.002
  -0.12908778  0.04140492  0.00000000       0.002
   0.12908778 -0.04140492  0.00000000       0.002
  -0.10040161  0.09109083  0.00000000       0.002
   0.10040161 -0.09109083  0.00000000       0.002
   0.02868617  0.13249576  0.00000000       0.002
  -0.02868617 -0.13249576  0.00000000       0.002
   0.12908778  0.04140492  0.00000000       0.002
  -0.12908778 -0.04140492  0.00000000       0.002
   0.11474469  0.09937182  0.00000000       0.002
  -0.11474469 -0.09937182  0.00000000       0.002
  -0.02868617  0.14905773  0.00000000       0.002
   0.02868617 -0.14905773  0.00000000       0.002
  -0.14343087  0.04968591  0.00000000       0.002
   0.14343087 -0.04968591  0.00000000       0.002
  -0.11474469  0.09937182  0.00000000       0.002
   0.11474469 -0.09937182  0.00000000       0.002
   0.02868617  0.14905773  0.00000000       0.002
  -0.02868617 -0.14905773  0.00000000       0.002
   0.14343087  0.04968591  0.00000000       0.002
  -0.14343087 -0.04968591  0.00000000       0.002
   0.12908778  0.10765280  0.00000000       0.002
  -0.12908778 -0.10765280  0.00000000       0.002
  -0.02868617 -0.18218167  0.00000000       0.002
   0.02868617  0.18218167  0.00000000       0.002
   0.14343087  0.23186758  0.00000000       0.002
  -0.14343087 -0.23186758  0.00000000       0.002
  -0.12908778 -0.24014856  0.00000000       0.002
   0.12908778  0.24014856  0.00000000       0.002
   0.02868617  0.16561970  0.00000000       0.002
  -0.02868617 -0.16561970  0.00000000       0.002
  -0.14343087 -0.11593379  0.00000000       0.002
   0.14343087  0.11593379  0.00000000       0.002
   0.04302926  0.07452886  0.00000000       0.002
  -0.04302926 -0.07452886  0.00000000       0.002
  -0.04302926  0.07452886  0.00000000       0.002
   0.04302926 -0.07452886  0.00000000       0.002
  -0.08605852  0.00000000  0.00000000       0.002
   0.08605852 -0.00000000  0.00000000       0.002
   0.05737235  0.08280985  0.00000000       0.002
  -0.05737235 -0.08280985  0.00000000       0.002
  -0.04302926  0.09109083  0.00000000       0.002
   0.04302926 -0.09109083  0.00000000       0.002
  -0.10040161  0.00828098  0.00000000       0.002
   0.10040161 -0.00828098  0.00000000       0.002
  -0.05737235  0.08280985  0.00000000       0.002
   0.05737235 -0.08280985  0.00000000       0.002
   0.04302926  0.09109083  0.00000000       0.002
  -0.04302926 -0.09109083  0.00000000       0.002
   0.10040161  0.00828098  0.00000000       0.002
  -0.10040161 -0.00828098  0.00000000       0.002
   0.07171543  0.09109083  0.00000000       0.002
  -0.07171543 -0.09109083  0.00000000       0.002
  -0.04302926  0.10765280  0.00000000       0.002
   0.04302926 -0.10765280  0.00000000       0.002
  -0.11474469  0.01656197  0.00000000       0.002
   0.11474469 -0.01656197  0.00000000       0.002
  -0.07171543  0.09109083  0.00000000       0.002
   0.07171543 -0.09109083  0.00000000       0.002
   0.04302926  0.10765280  0.00000000       0.002
  -0.04302926 -0.10765280  0.00000000       0.002
   0.11474469  0.01656197  0.00000000       0.002
  -0.11474469 -0.01656197  0.00000000       0.002
   0.08605852  0.09937182  0.00000000       0.002
  -0.08605852 -0.09937182  0.00000000       0.002
  -0.04302926  0.12421477  0.00000000       0.002
   0.04302926 -0.12421477  0.00000000       0.002
  -0.12908778  0.02484295  0.00000000       0.002
   0.12908778 -0.02484295  0.00000000       0.002
  -0.08605852  0.09937182  0.00000000       0.002
   0.08605852 -0.09937182  0.00000000       0.002
   0.04302926  0.12421477  0.00000000       0.002
  -0.04302926 -0.12421477  0.00000000       0.002
   0.12908778  0.02484295  0.00000000       0.002
  -0.12908778 -0.02484295  0.00000000       0.002
   0.10040161  0.10765280  0.00000000       0.002
  -0.10040161 -0.10765280  0.00000000       0.002
  -0.04302926  0.14077674  0.00000000       0.002
   0.04302926 -0.14077674  0.00000000       0.002
  -0.14343087  0.03312394  0.00000000       0.002
   0.14343087 -0.03312394  0.00000000       0.002
  -0.10040161  0.10765280  0.00000000       0.002
   0.10040161 -0.10765280  0.00000000       0.002
   0.04302926  0.14077674  0.00000000       0.002
  -0.04302926 -0.14077674  0.00000000       0.002
   0.14343087  0.03312394  0.00000000       0.002
  -0.14343087 -0.03312394  0.00000000       0.002
   0.11474469  0.11593379  0.00000000       0.002
  -0.11474469 -0.11593379  0.00000000       0.002
  -0.04302926 -0.19046265  0.00000000       0.002
   0.04302926  0.19046265  0.00000000       0.002
   0.14343087  0.21530561  0.00000000       0.002
  -0.14343087 -0.21530561  0.00000000       0.002
  -0.11474469 -0.23186758  0.00000000       0.002
   0.11474469  0.23186758  0.00000000       0.002
   0.04302926  0.15733871  0.00000000       0.002
  -0.04302926 -0.15733871  0.00000000       0.002
  -0.14343087 -0.13249576  0.00000000       0.002
   0.14343087  0.13249576  0.00000000       0.002
   0.12908778  0.12421477  0.00000000       0.002
  -0.12908778 -0.12421477  0.00000000       0.002
  -0.04302926 -0.17390068  0.00000000       0.002
   0.04302926  0.17390068  0.00000000       0.002
   0.12908778  0.22358659  0.00000000       0.002
  -0.12908778 -0.22358659  0.00000000       0.002
   0.05737235  0.09937182  0.00000000       0.002
  -0.05737235 -0.09937182  0.00000000       0.002
  -0.05737235  0.09937182  0.00000000       0.002
   0.05737235 -0.09937182  0.00000000       0.002
  -0.11474469 -0.00000000  0.00000000       0.002
   0.11474469  0.00000000  0.00000000       0.002
   0.07171543  0.10765280  0.00000000       0.002
  -0.07171543 -0.10765280  0.00000000       0.002
  -0.05737235  0.11593379  0.00000000       0.002
   0.05737235 -0.11593379  0.00000000       0.002
  -0.12908778  0.00828098  0.00000000       0.002
   0.12908778 -0.00828098  0.00000000       0.002
  -0.07171543  0.10765280  0.00000000       0.002
   0.07171543 -0.10765280  0.00000000       0.002
   0.05737235  0.11593379  0.00000000       0.002
  -0.05737235 -0.11593379  0.00000000       0.002
   0.12908778  0.00828098  0.00000000       0.002
  -0.12908778 -0.00828098  0.00000000       0.002
   0.08605852  0.11593379  0.00000000       0.002
  -0.08605852 -0.11593379  0.00000000       0.002
  -0.05737235  0.13249576  0.00000000       0.002
   0.05737235 -0.13249576  0.00000000       0.002
  -0.14343087  0.01656197  0.00000000       0.002
   0.14343087 -0.01656197  0.00000000       0.002
  -0.08605852  0.11593379  0.00000000       0.002
   0.08605852 -0.11593379  0.00000000       0.002
   0.05737235  0.13249576  0.00000000       0.002
  -0.05737235 -0.13249576  0.00000000       0.002
   0.14343087  0.01656197  0.00000000       0.002
  -0.14343087 -0.01656197  0.00000000       0.002
   0.10040161  0.12421477  0.00000000       0.002
  -0.10040161 -0.12421477  0.00000000       0.002
  -0.05737235 -0.19874364  0.00000000       0.002
   0.05737235  0.19874364  0.00000000       0.002
   0.14343087  0.19874364  0.00000000       0.002
  -0.14343087 -0.19874364  0.00000000       0.002
  -0.10040161 -0.22358659  0.00000000       0.002
   0.10040161  0.22358659  0.00000000       0.002
   0.05737235  0.14905773  0.00000000       0.002
  -0.05737235 -0.14905773  0.00000000       0.002
  -0.14343087 -0.14905773  0.00000000       0.002
   0.14343087  0.14905773  0.00000000       0.002
   0.11474469  0.13249576  0.00000000       0.002
  -0.11474469 -0.13249576  0.00000000       0.002
  -0.05737235 -0.18218167  0.00000000       0.002
   0.05737235  0.18218167  0.00000000       0.002
   0.12908778  0.20702462  0.00000000       0.002
  -0.12908778 -0.20702462  0.00000000       0.002
  -0.11474469 -0.21530561  0.00000000       0.002
   0.11474469  0.21530561  0.00000000       0.002
   0.05737235  0.16561970  0.00000000       0.002
  -0.05737235 -0.16561970  0.00000000       0.002
  -0.12908778 -0.14077674  0.00000000       0.002
   0.12908778  0.14077674  0.00000000       0.002
   0.07171543  0.12421477  0.00000000       0.002
  -0.07171543 -0.12421477  0.00000000       0.002
  -0.07171543  0.12421477  0.00000000       0.002
   0.07171543 -0.12421477  0.00000000       0.002
  -0.14343087 -0.00000000  0.00000000       0.002
   0.14343087  0.00000000  0.00000000       0.002
   0.08605852  0.13249576  0.00000000       0.002
  -0.08605852 -0.13249576  0.00000000       0.002
  -0.07171543 -0.20702462  0.00000000       0.002
   0.07171543  0.20702462  0.00000000       0.002
   0.14343087  0.18218167  0.00000000       0.002
  -0.14343087 -0.18218167  0.00000000       0.002
  -0.08605852 -0.21530561  0.00000000       0.002
   0.08605852  0.21530561  0.00000000       0.002
   0.07171543  0.14077674  0.00000000       0.002
  -0.07171543 -0.14077674  0.00000000       0.002
  -0.14343087 -0.16561970  0.00000000       0.002
   0.14343087  0.16561970  0.00000000       0.002
   0.10040161  0.14077674  0.00000000       0.002
  -0.10040161 -0.14077674  0.00000000       0.002
  -0.07171543 -0.19046265  0.00000000       0.002
   0.07171543  0.19046265  0.00000000       0.002
   0.12908778  0.19046265  0.00000000       0.002
  -0.12908778 -0.19046265  0.00000000       0.002
  -0.10040161 -0.20702462  0.00000000       0.002
   0.10040161  0.20702462  0.00000000       0.002
   0.07171543  0.15733871  0.00000000       0.002
  -0.07171543 -0.15733871  0.00000000       0.002
  -0.12908778 -0.15733871  0.00000000       0.002
   0.12908778  0.15733871  0.00000000       0.002
   0.11474469  0.14905773  0.00000000       0.002
  -0.11474469 -0.14905773  0.00000000       0.002
  -0.07171543 -0.17390068  0.00000000       0.002
   0.07171543  0.17390068  0.00000000       0.002
   0.11474469  0.19874364  0.00000000       0.002
  -0.11474469 -0.19874364  0.00000000       0.002
   0.08605852  0.14905773  0.00000000       0.002
  -0.08605852 -0.14905773  0.00000000       0.002
  -0.08605852 -0.19874364  0.00000000       0.002
   0.08605852  0.19874364  0.00000000       0.002
   0.12908778  0.17390068  0.00000000       0.002
  -0.12908778 -0.17390068  0.00000000       0.002
   0.10040161  0.15733871  0.00000000       0.002
  -0.10040161 -0.15733871  0.00000000       0.002
  -0.08605852 -0.18218167  0.00000000       0.002
   0.08605852  0.18218167  0.00000000       0.002
   0.11474469  0.18218167  0.00000000       0.002
  -0.11474469 -0.18218167  0.00000000       0.002
  -0.10040161 -0.19046265  0.00000000       0.002
   0.10040161  0.19046265  0.00000000       0.002
   0.08605852  0.16561970  0.00000000       0.002
  -0.08605852 -0.16561970  0.00000000       0.002
  -0.11474469 -0.16561970  0.00000000       0.002
   0.11474469  0.16561970  0.00000000       0.002
   0.10040161  0.17390068  0.00000000       0.002
  -0.10040161 -0.17390068  0.00000000       0.002
 
 k-points in reciprocal lattice and weights: Automatic mesh                          
   0.00000000  0.00000000  0.00000000       0.002
   0.04761905 -0.00000000  0.00000000       0.002
  -0.04761905  0.00000000  0.00000000       0.002
   0.00000000  0.04761905  0.00000000       0.002
   0.00000000 -0.04761905  0.00000000       0.002
  -0.04761905  0.04761905  0.00000000       0.002
   0.04761905 -0.04761905  0.00000000       0.002
   0.09523810  0.00000000  0.00000000       0.002
  -0.09523810 -0.00000000  0.00000000       0.002
   0.00000000  0.09523810  0.00000000       0.002
   0.00000000 -0.09523810  0.00000000       0.002
  -0.09523810  0.09523810  0.00000000       0.002
   0.09523810 -0.09523810  0.00000000       0.002
   0.14285714 -0.00000000  0.00000000       0.002
  -0.14285714  0.00000000  0.00000000       0.002
   0.00000000  0.14285714  0.00000000       0.002
   0.00000000 -0.14285714  0.00000000       0.002
  -0.14285714  0.14285714  0.00000000       0.002
   0.14285714 -0.14285714  0.00000000       0.002
   0.19047619  0.00000000  0.00000000       0.002
  -0.19047619 -0.00000000  0.00000000       0.002
   0.00000000  0.19047619  0.00000000       0.002
   0.00000000 -0.19047619  0.00000000       0.002
  -0.19047619  0.19047619  0.00000000       0.002
   0.19047619 -0.19047619  0.00000000       0.002
   0.23809524 -0.00000000  0.00000000       0.002
  -0.23809524  0.00000000  0.00000000       0.002
   0.00000000  0.23809524  0.00000000       0.002
   0.00000000 -0.23809524  0.00000000       0.002
  -0.23809524  0.23809524  0.00000000       0.002
   0.23809524 -0.23809524  0.00000000       0.002
   0.28571429 -0.00000000  0.00000000       0.002
  -0.28571429  0.00000000  0.00000000       0.002
   0.00000000  0.28571429  0.00000000       0.002
   0.00000000 -0.28571429  0.00000000       0.002
  -0.28571429  0.28571429  0.00000000       0.002
   0.28571429 -0.28571429  0.00000000       0.002
   0.33333333 -0.00000000  0.00000000       0.002
  -0.33333333  0.00000000  0.00000000       0.002
   0.00000000  0.33333333  0.00000000       0.002
[...]
  0.326  -0.000   0.000  -0.000   0.000  -0.393   0.000  -0.000   0.000  -0.000  -0.000  -0.000   0.000  -0.000   0.296   0.000
  0.000  -0.000   0.000   0.000  -0.047  -0.000   0.000  -0.000  -0.000   0.052  -0.000   0.000  -0.037   0.000   0.000   0.005
  0.000   0.000   0.000   0.000   0.000  -0.000  -0.000  -0.000  -0.000  -0.000  -0.000  -0.000   0.000  -0.045   0.000  -0.000
 -0.047   0.000  -0.000   0.000   0.000   0.052  -0.000   0.000  -0.000  -0.000  -0.000   0.000   0.000   0.000  -0.037  -0.000
 total augmentation occupancy for first ion, spin component:           2
  0.000  -0.000  -0.000  -0.000   0.000  -0.000   0.000  -0.000   0.000  -0.000   0.000  -0.000   0.000   0.000   0.000   0.000
 -0.000   0.000   0.000  -0.000   0.000   0.000  -0.000  -0.000   0.000  -0.000   0.000  -0.000   0.000   0.000  -0.000  -0.000
 -0.000   0.000  -0.000  -0.000   0.000  -0.000  -0.000  -0.000   0.000  -0.000  -0.000  -0.000  -0.000  -0.000  -0.000   0.000
 -0.000  -0.000  -0.000   0.000  -0.000   0.000   0.000   0.000  -0.000  -0.000   0.000  -0.000   0.000  -0.000  -0.000  -0.000
  0.000   0.000   0.000  -0.000   0.000   0.000  -0.000  -0.000   0.000  -0.000  -0.000   0.000  -0.000   0.000  -0.000  -0.000
 -0.000   0.000  -0.000   0.000   0.000   0.000  -0.000   0.000  -0.000  -0.000  -0.000   0.000   0.000  -0.000  -0.000  -0.000
  0.000  -0.000  -0.000   0.000  -0.000  -0.000   0.000   0.000  -0.000   0.000  -0.000   0.000  -0.000  -0.000   0.000   0.000
 -0.000  -0.000  -0.000   0.000  -0.000   0.000   0.000   0.000  -0.000   0.000   0.000  -0.000   0.000   0.000  -0.000  -0.000
  0.000   0.000   0.000  -0.000   0.000  -0.000  -0.000  -0.000   0.000   0.000  -0.000   0.000  -0.000   0.000   0.000   0.000
 -0.000  -0.000  -0.000  -0.000  -0.000  -0.000   0.000   0.000   0.000   0.000   0.000  -0.000  -0.000   0.000   0.000   0.000
  0.000   0.000  -0.000   0.000  -0.000  -0.000  -0.000   0.000  -0.000   0.000   0.000  -0.000   0.000  -0.000   0.000  -0.000
 -0.000  -0.000  -0.000  -0.000   0.000   0.000   0.000  -0.000   0.000  -0.000  -0.000   0.000  -0.000   0.000  -0.000   0.000
  0.000   0.000  -0.000   0.000  -0.000   0.000  -0.000   0.000  -0.000  -0.000   0.000  -0.000  -0.000   0.000  -0.000   0.000
  0.000   0.000  -0.000  -0.000   0.000  -0.000  -0.000   0.000   0.000   0.000  -0.000   0.000   0.000  -0.000  -0.000  -0.000
  0.000  -0.000  -0.000  -0.000  -0.000  -0.000   0.000  -0.000   0.000   0.000   0.000  -0.000  -0.000  -0.000   0.000   0.000
  0.000  -0.000   0.000  -0.000  -0.000  -0.000   0.000  -0.000   0.000   0.000  -0.000   0.000   0.000  -0.000   0.000  -0.000
  0.000  -0.000   0.000   0.000  -0.000  -0.000   0.000  -0.000  -0.000  -0.000  -0.000  -0.000  -0.000  -0.000   0.000   0.000
 -0.000   0.000  -0.000   0.000  -0.000   0.000  -0.000   0.000  -0.000  -0.000   0.000  -0.000   0.000   0.000  -0.000  -0.000
 total augmentation occupancy for first ion, spin component:           3
  0.000  -0.000   0.000  -0.000   0.000  -0.000   0.000  -0.000   0.000  -0.000   0.000  -0.000  -0.000  -0.000   0.000   0.000
 -0.000   0.000  -0.000  -0.000   0.000   0.000  -0.000   0.000   0.000  -0.000   0.000  -0.000   0.000  -0.000  -0.000  -0.000
  0.000  -0.000  -0.000  -0.000   0.000  -0.000   0.000  -0.000  -0.000   0.000  -0.000   0.000   0.000  -0.000  -0.000  -0.000
 -0.000  -0.000  -0.000   0.000   0.000   0.000   0.000   0.000   0.000  -0.000   0.000  -0.000  -0.000   0.000   0.000   0.000
  0.000   0.000   0.000   0.000  -0.000   0.000  -0.000  -0.000  -0.000  -0.000  -0.000   0.000   0.000  -0.000  -0.000  -0.000
 -0.000   0.000  -0.000   0.000   0.000   0.000  -0.000   0.000  -0.000   0.000  -0.000   0.000   0.000   0.000  -0.000  -0.000
  0.000  -0.000   0.000   0.000  -0.000  -0.000   0.000  -0.000  -0.000   0.000  -0.000   0.000  -0.000   0.000   0.000   0.000
 -0.000   0.000  -0.000   0.000  -0.000   0.000  -0.000   0.000  -0.000  -0.000   0.000  -0.000  -0.000   0.000   0.000   0.000
  0.000   0.000  -0.000   0.000  -0.000  -0.000  -0.000  -0.000  -0.000   0.000  -0.000   0.000   0.000  -0.000  -0.000  -0.000
 -0.000  -0.000   0.000  -0.000  -0.000   0.000   0.000  -0.000   0.000   0.000   0.000  -0.000  -0.000   0.000   0.000   0.000
  0.000   0.000  -0.000   0.000  -0.000  -0.000  -0.000   0.000  -0.000   0.000   0.000  -0.000  -0.000  -0.000   0.000   0.000
 -0.000  -0.000   0.000  -0.000   0.000   0.000   0.000  -0.000   0.000  -0.000  -0.000   0.000   0.000  -0.000  -0.000  -0.000
 -0.000   0.000   0.000  -0.000   0.000   0.000  -0.000  -0.000   0.000  -0.000  -0.000   0.000   0.000   0.000  -0.000  -0.000
 -0.000  -0.000  -0.000   0.000  -0.000   0.000   0.000   0.000  -0.000   0.000  -0.000  -0.000   0.000  -0.000  -0.000  -0.000
  0.000  -0.000  -0.000   0.000  -0.000  -0.000   0.000   0.000  -0.000   0.000   0.000  -0.000  -0.000  -0.000   0.000   0.000
  0.000  -0.000  -0.000   0.000  -0.000  -0.000   0.000   0.000  -0.000   0.000   0.000  -0.000  -0.000  -0.000   0.000   0.000
  0.000   0.000  -0.000  -0.000   0.000  -0.000  -0.000   0.000   0.000  -0.000   0.000  -0.000   0.000   0.000   0.000   0.000
 -0.000  -0.000   0.000  -0.000   0.000   0.000   0.000  -0.000   0.000  -0.000  -0.000   0.000   0.000   0.000  -0.000  -0.000
 total augmentation occupancy for first ion, spin component:           4
  0.000  -0.000   0.000  -0.000   0.000  -0.000   0.000  -0.000   0.000  -0.000   0.000  -0.000  -0.000   0.000  -0.000   0.000
 -0.000   0.000  -0.000  -0.000  -0.000   0.000  -0.000  -0.000   0.000   0.000  -0.000   0.000  -0.000  -0.000   0.000   0.000
  0.000  -0.000  -0.000   0.000  -0.000  -0.000  -0.000  -0.000  -0.000   0.000  -0.000   0.000   0.000  -0.000  -0.000  -0.000
 -0.000  -0.000   0.000   0.000   0.000   0.000   0.000  -0.000  -0.000  -0.000   0.000  -0.000  -0.000  -0.000  -0.000  -0.000
  0.000  -0.000  -0.000   0.000  -0.000   0.000  -0.000   0.000  -0.000  -0.000   0.000  -0.000   0.000   0.000  -0.000  -0.000
 -0.000   0.000  -0.000   0.000   0.000   0.000  -0.000   0.000  -0.000  -0.000  -0.000   0.000   0.000  -0.000   0.000  -0.000
  0.000  -0.000  -0.000   0.000  -0.000  -0.000   0.000   0.000  -0.000   0.000   0.000  -0.000   0.000   0.000  -0.000  -0.000
 -0.000  -0.000  -0.000  -0.000   0.000   0.000   0.000   0.000   0.000  -0.000   0.000  -0.000  -0.000  -0.000   0.000   0.000
  0.000   0.000  -0.000  -0.000  -0.000  -0.000  -0.000   0.000   0.000   0.000  -0.000   0.000   0.000   0.000   0.000   0.000
 -0.000   0.000   0.000  -0.000  -0.000  -0.000   0.000  -0.000   0.000   0.000  -0.000   0.000  -0.000  -0.000   0.000   0.000
  0.000  -0.000  -0.000   0.000   0.000  -0.000   0.000   0.000  -0.000  -0.000  -0.000   0.000  -0.000   0.000   0.000   0.000
 -0.000   0.000   0.000  -0.000  -0.000   0.000  -0.000  -0.000   0.000   0.000   0.000  -0.000  -0.000  -0.000  -0.000  -0.000
 -0.000  -0.000   0.000  -0.000   0.000   0.000   0.000  -0.000   0.000  -0.000  -0.000  -0.000   0.000  -0.000  -0.000  -0.000
  0.000  -0.000  -0.000  -0.000   0.000  -0.000   0.000  -0.000   0.000  -0.000   0.000  -0.000  -0.000  -0.000  -0.000   0.000
 -0.000   0.000  -0.000  -0.000  -0.000   0.000  -0.000   0.000   0.000   0.000   0.000  -0.000  -0.000  -0.000  -0.000   0.000
  0.000   0.000  -0.000  -0.000  -0.000  -0.000  -0.000   0.000   0.000   0.000   0.000  -0.000  -0.000   0.000   0.000   0.000
 -0.000   0.000   0.000   0.000  -0.000   0.000  -0.000   0.000  -0.000   0.000  -0.000   0.000  -0.000   0.000   0.000  -0.000
  0.000  -0.000   0.000   0.000   0.000  -0.000   0.000   0.000  -0.000  -0.000  -0.000   0.000   0.000   0.000   0.000  -0.000


------------------------ aborting loop because EDIFF is reached ----------------------------------------





 total charge

# of ion       s       p       d       tot
------------------------------------------
    1        0.385   0.513   4.389   5.287
    2        1.478   2.337   0.059   3.874
    3        1.478   2.337   0.059   3.874
--------------------------------------------------
tot          3.342   5.187   4.506  13.035



 magnetization (x)

# of ion       s       p       d       tot
------------------------------------------
    1       -0.000  -0.000  -0.000  -0.000
    2       -0.000  -0.000   0.000  -0.000
    3       -0.000  -0.000  -0.000  -0.000
--------------------------------------------------
tot         -0.000  -0.000  -0.000  -0.000



 magnetization (y)

# of ion       s       p       d       tot
------------------------------------------
    1       -0.000  -0.000  -0.000  -0.000
    2       -0.000  -0.000  -0.000  -0.000
    3       -0.000  -0.000  -0.000  -0.000
--------------------------------------------------
tot         -0.000  -0.000  -0.000  -0.000



 magnetization (z)

# of ion       s       p       d       tot
------------------------------------------
    1       -0.000  -0.000  -0.000  -0.000
    2       -0.000  -0.000  -0.000  -0.000
    3       -0.000  -0.000  -0.000  -0.000
--------------------------------------------------
tot         -0.000  -0.000  -0.000  -0.000
 
    CHARGE:  cpu time      0.1147: real time      0.1157
    FORLOC:  cpu time      0.0004: real time      0.0008
    FORNL :  cpu time      0.1593: real time      0.1600
    STRESS:  cpu time      0.4816: real time      0.4843
    FORCOR:  cpu time      0.0096: real time      0.0096
    FORHAR:  cpu time      0.0012: real time      0.0012
    MIXING:  cpu time      0.0006: real time      0.0013
    OFIELD:  cpu time      0.0000: real time      0.0000

  FORCE on cell =-STRESS in cart. coord.  units (eV):
  Direction    XX          YY          ZZ          XY          YZ          ZX
  --------------------------------------------------------------------------------------
  Alpha Z    28.99437    28.99437    28.99437
  Ewald    1474.19609  1474.19937 -2016.08190     0.00018    -0.00213    -0.00368
  Hartree  1610.00675  1610.00742 -1580.15020     0.00004    -0.00023    -0.00040
  E(xc)     -72.45303   -72.45308   -73.24751     0.00000     0.00007     0.00012
  Local   -3324.16921 -3324.17300  3352.83302    -0.00031     0.00220     0.00379
  n-local    63.05426    63.05450    68.45500     0.00003    -0.00037    -0.00063
  augment     1.16183     1.16231     0.17551    -0.00021     0.00001     0.00001
  Kinetic   218.83102   218.83073   218.68298    -0.00003    -0.00035    -0.00060
  Fock        0.00000     0.00000     0.00000     0.00000     0.00000     0.00000
  -------------------------------------------------------------------------------------
  Total      -0.37792    -0.37737    -0.33873    -0.00030    -0.00080    -0.00139
  in kB      -4.22874    -4.22260    -3.79029    -0.00340    -0.00897    -0.01556
  external pressure =       -4.08 kB  Pullay stress =        0.00 kB


 VOLUME and BASIS-vectors are now :
 -----------------------------------------------------------------------------
  energy-cutoff  :      224.58
  volume of cell :      143.19
      direct lattice vectors                 reciprocal lattice vectors
     3.320000000  0.000000000  0.000000000     0.301204819  0.173900683  0.000000000
    -1.660000000  2.875204341  0.000000000     0.000000000  0.347801367  0.000000000
     0.000000000  0.000000000 15.000000000     0.000000000  0.000000000  0.066666667

  length of vectors
     3.320000000  3.320000000 15.000000000     0.347801367  0.347801367  0.066666667


 FORCES acting on ions
    electron-ion (+dipol)            ewald-force                    non-local-force                 convergence-correction
 -----------------------------------------------------------------------------------------------
   -.996E-04 0.667E-03 0.244E-04   0.840E-04 -.764E-03 -.105E-04   -.166E-04 -.222E-03 -.677E-04   0.256E-04 0.298E-04 0.411E-04
   -.979E-03 -.882E-03 0.430E+03   0.106E-02 0.102E-02 -.432E+03   0.180E-03 0.181E-03 0.255E+01   0.327E-04 -.107E-04 -.115E-02
   0.107E-02 0.237E-03 -.430E+03   -.114E-02 -.255E-03 0.432E+03   -.258E-03 -.403E-04 -.255E+01   -.249E-04 -.612E-05 0.201E-02
 -----------------------------------------------------------------------------------------------
   -.795E-05 0.228E-04 -.952E-03   -.962E-14 -.634E-15 0.000E+00   -.944E-04 -.805E-04 0.434E-04   0.334E-04 0.130E-04 0.896E-03
 
 
 POSITION                                       TOTAL-FORCE (eV/Angst)
 -----------------------------------------------------------------------------------
      1.63433      0.94359      7.50683         0.000016     -0.000273     -0.000009
      1.63428      2.86035      5.83830         0.000317      0.000323     -0.005082
      1.63439      2.86041      9.17536        -0.000333     -0.000050      0.005090
 -----------------------------------------------------------------------------------
    total drift:                               -0.000069     -0.000045     -0.000012


--------------------------------------------------------------------------------------------------------



  FREE ENERGIE OF THE ION-ELECTRON SYSTEM (eV)
  ---------------------------------------------------
  free  energy   TOTEN  =       -20.00347914 eV

  energy  without entropy=      -20.00347914  energy(sigma->0) =      -20.00347914
 


--------------------------------------------------------------------------------------------------------


    POTLOK:  cpu time      0.0168: real time      0.0169


--------------------------------------------------------------------------------------------------------


 stress matrix after NEB project (eV)
     -0.37792     -0.00030     -0.00139
     -0.00030     -0.37737     -0.00080
     -0.00139     -0.00080     -0.33873
  FORCES: max atom, RMS     0.005102    0.004169
  FORCE total and by dimension    0.007220    0.005090
  Stress total and by dimension    0.632438    0.377919
 writing wavefunctions
     LOOP+:  cpu time     32.8056: real time     33.6675
    4ORBIT:  cpu time      0.0000: real time      0.0000

 Spin-Orbit-Coupling matrix elements

 Ion:    1  E_soc:     -0.0299563
 l=   1
     0.0000000    -0.0021221    -0.0018878
    -0.0021221     0.0000000    -0.0021221
    -0.0018878    -0.0021221     0.0000000
 l=   2
     0.0000000    -0.0005034     0.0000000    -0.0005034    -0.0028255
    -0.0005034     0.0000000    -0.0017701    -0.0004669    -0.0005034
     0.0000000    -0.0017701     0.0000000    -0.0017701     0.0000000
    -0.0005034    -0.0004669    -0.0017701     0.0000000    -0.0005034
    -0.0028255    -0.0005034     0.0000000    -0.0005034     0.0000000
 l=   3
     0.0000000     0.0000000     0.0000000     0.0000000     0.0000000     0.0000000     0.0000000
     0.0000000     0.0000000     0.0000000     0.0000000     0.0000000     0.0000000     0.0000000
     0.0000000     0.0000000     0.0000000     0.0000000     0.0000000     0.0000000     0.0000000
     0.0000000     0.0000000     0.0000000     0.0000000     0.0000000     0.0000000     0.0000000
     0.0000000     0.0000000     0.0000000     0.0000000     0.0000000     0.0000000     0.0000000
     0.0000000     0.0000000     0.0000000     0.0000000     0.0000000     0.0000000     0.0000000
     0.0000000     0.0000000     0.0000000     0.0000000     0.0000000     0.0000000     0.0000000

 Ion:    2  E_soc:     -0.0405060
 l=   1
     0.0000000    -0.0066823    -0.0068902
    -0.0066823     0.0000000    -0.0066824
    -0.0068902    -0.0066824     0.0000000
 l=   2
     0.0000000     0.0000006     0.0000000     0.0000006    -0.0000052
     0.0000006     0.0000000    -0.0000011     0.0000068     0.0000006
     0.0000000    -0.0000011     0.0000000    -0.0000011     0.0000000
     0.0000006     0.0000068    -0.0000011     0.0000000     0.0000006
    -0.0000052     0.0000006     0.0000000     0.0000006     0.0000000
 l=   3
     0.0000000     0.0000000     0.0000000     0.0000000     0.0000000     0.0000000     0.0000000
     0.0000000     0.0000000     0.0000000     0.0000000     0.0000000     0.0000000     0.0000000
     0.0000000     0.0000000     0.0000000     0.0000000     0.0000000     0.0000000     0.0000000
     0.0000000     0.0000000     0.0000000     0.0000000     0.0000000     0.0000000     0.0000000
     0.0000000     0.0000000     0.0000000     0.0000000     0.0000000     0.0000000     0.0000000
     0.0000000     0.0000000     0.0000000     0.0000000     0.0000000     0.0000000     0.0000000
     0.0000000     0.0000000     0.0000000     0.0000000     0.0000000     0.0000000     0.0000000

 Ion:    3  E_soc:     -0.0405063
 l=   1
     0.0000000    -0.0066824    -0.0068903
    -0.0066824     0.0000000    -0.0066824
    -0.0068903    -0.0066824     0.0000000
 l=   2
     0.0000000     0.0000006     0.0000000     0.0000006    -0.0000052
     0.0000006     0.0000000    -0.0000011     0.0000068     0.0000006
     0.0000000    -0.0000011     0.0000000    -0.0000011     0.0000000
     0.0000006     0.0000068    -0.0000011     0.0000000     0.0000006
    -0.0000052     0.0000006     0.0000000     0.0000006     0.0000000
 l=   3
     0.0000000     0.0000000     0.0000000     0.0000000     0.0000000     0.0000000     0.0000000
     0.0000000     0.0000000     0.0000000     0.0000000     0.0000000     0.0000000     0.0000000
     0.0000000     0.0000000     0.0000000     0.0000000     0.0000000     0.0000000     0.0000000
     0.0000000     0.0000000     0.0000000     0.0000000     0.0000000     0.0000000     0.0000000
     0.0000000     0.0000000     0.0000000     0.0000000     0.0000000     0.0000000     0.0000000
     0.0000000     0.0000000     0.0000000     0.0000000     0.0000000     0.0000000     0.0000000
     0.0000000     0.0000000     0.0000000     0.0000000     0.0000000     0.0000000     0.0000000



 total charge

# of ion       s       p       d       tot
------------------------------------------
    1        0.385   0.513   4.389   5.287
    2        1.478   2.337   0.059   3.874
    3        1.478   2.337   0.059   3.874
--------------------------------------------------
tot          3.342   5.187   4.506  13.035



 magnetization (x)

# of ion       s       p       d       tot
------------------------------------------
    1       -0.000  -0.000  -0.000  -0.000
    2       -0.000  -0.000   0.000  -0.000
    3       -0.000  -0.000  -0.000  -0.000
--------------------------------------------------
tot         -0.000  -0.000  -0.000  -0.000



 magnetization (y)

# of ion       s       p       d       tot
------------------------------------------
    1       -0.000  -0.000  -0.000  -0.000
    2       -0.000  -0.000  -0.000  -0.000
    3       -0.000  -0.000  -0.000  -0.000
--------------------------------------------------
tot         -0.000  -0.000  -0.000  -0.000



 magnetization (z)

# of ion       s       p       d       tot
------------------------------------------
    1       -0.000  -0.000  -0.000  -0.000
    2       -0.000  -0.000  -0.000  -0.000
    3       -0.000  -0.000  -0.000  -0.000
--------------------------------------------------
tot         -0.000  -0.000  -0.000  -0.000
 

 total amount of memory used by VASP MPI-rank0    68828. kBytes
=======================================================================

   base      :      30000. kBytes
   nonl-proj :      24394. kBytes
   fftplans  :        460. kBytes
   grid      :       1720. kBytes
   one-center:         62. kBytes
   wavefun   :      12192. kBytes
 
  
  
 General timing and accounting informations for this job:
 ========================================================
  
                  Total CPU time used (sec):       38.580
                            User time (sec):       37.503
                          System time (sec):        1.076
                         Elapsed time (sec):       41.841
  
                   Maximum memory used (kb):      289960.
                   Average memory used (kb):          N/A
  
                          Minor page faults:        41512
                          Major page faults:          177
                 Voluntary context switches:         2952
