 vasp.6.3.0 20Jan22 (build Oct 03 2022 14:51:58) complex                        
  
 executed on             LinuxIFC date 2024.11.01  16:49:45
 running on   48 total cores
 distrk:  each k-point on   48 cores,    1 groups
 distr:  one band on NCORE=   6 cores,    8 groups


--------------------------------------------------------------------------------------------------------


 INCAR:
   SYSTEM = MoSe2
   PREC = Accurate
   ISPIN = 1
   ISTART = 0
   ICHARG = 1
   NPAR = 8
   ISMEAR = 0
   SIGMA = 0.1
   NELMIN = 4
   NELM = 200
   EDIFF = 1E-6
   MAGMOM = 0 0 1 6*0
   IBRION = -1
   NWRITE = 1
   LORBIT = 11
   LWAVE = .TRUE.
   LCHARG = .TRUE.
   LSORBIT = .TRUE.
   LHFCALC = .TRUE.
   HFSCREEN = 0.2
   ALGO = Damped
   TIME = 0.4

 POTCAR:    PAW_PBE Mo 08Apr2002                  
 POTCAR:    PAW_PBE Se 06Sep2000                  
 POTCAR:    PAW_PBE Mo 08Apr2002                  
  local pseudopotential read in
  partial core-charges read in
  partial kinetic energy density read in
  atomic valenz-charges read in
  non local Contribution for L=           2  read in
    real space projection operators read in
  non local Contribution for L=           2  read in
    real space projection operators read in
  non local Contribution for L=           0  read in
    real space projection operators read in
  non local Contribution for L=           0  read in
    real space projection operators read in
  non local Contribution for L=           1  read in
    real space projection operators read in
  non local Contribution for L=           1  read in
    real space projection operators read in
    PAW grid and wavefunctions read in
 
   number of l-projection  operators is LMAX  =           6
   number of lm-projection operators is LMMAX =          18
 
 POTCAR:    PAW_PBE Se 06Sep2000                  
  local pseudopotential read in
  partial core-charges read in
  partial kinetic energy density read in
  atomic valenz-charges read in
  non local Contribution for L=           0  read in
    real space projection operators read in
  non local Contribution for L=           0  read in
    real space projection operators read in
  non local Contribution for L=           1  read in
    real space projection operators read in
  non local Contribution for L=           1  read in
    real space projection operators read in
  non local Contribution for L=           2  read in
    real space projection operators read in
    PAW grid and wavefunctions read in
 
   number of l-projection  operators is LMAX  =           5
   number of lm-projection operators is LMMAX =          13
 
  PAW_PBE Mo 08Apr2002                  :
 energy of atom  1       EATOM= -217.5176
 kinetic energy error for atom=    0.0303 (will be added to EATOM!!)
  PAW_PBE Se 06Sep2000                  :
 energy of atom  2       EATOM= -257.1286
 kinetic energy error for atom=    0.0119 (will be added to EATOM!!)
 
 
 POSCAR: Mo  S
  positions in direct lattice
  velocities in cartesian coordinates
 exchange correlation table for  LEXCH =        8
   RHO(1)=    0.500       N(1)  =     2000
   RHO(2)=  100.500       N(2)  =     4000

 VTST: version 4.2, (08/11/21)

 CHAIN: initializing optimizer
 
 OPT: Using VASP Dynamics algorithm
 CHAIN: Read ICHAIN            0
 
 POSCAR: Mo  S
  positions in direct lattice
  velocities in cartesian coordinates
 


--------------------------------------------------------------------------------------------------------


 ion  position               nearest neighbor table
   1  0.656  0.328  0.500-   3 2.54   2 2.54   2 2.54   3 2.54   3 2.54   2 2.54
   2  0.990  0.995  0.389-   1 2.54   1 2.54   1 2.54
   3  0.990  0.995  0.612-   1 2.54   1 2.54   1 2.54
 
  LATTYP: Found a hexagonal cell.
 ALAT       =     3.3200000000
 C/A-ratio  =     4.5180722892
  
  Lattice vectors:
  
 A1 = (   3.3200000000,   0.0000000000,   0.0000000000)
 A2 = (  -1.6600000000,   2.8752043406,   0.0000000000)
 A3 = (   0.0000000000,   0.0000000000,  15.0000000000)


Analysis of symmetry for initial positions (statically):
=====================================================================
 Subroutine PRICEL returns:
 Original cell was already a primitive cell.
 

 Routine SETGRP: Setting up the symmetry group for a 
 hexagonal supercell.


 Subroutine GETGRP returns: Found  2 space group operations
 (whereof  2 operations were pure point group operations)
 out of a pool of 24 trial point group operations.


The static configuration has the point symmetry C_1h.


Analysis of symmetry for dynamics (positions and initial velocities):
=====================================================================
 Subroutine PRICEL returns:
 Original cell was already a primitive cell.
 

 Routine SETGRP: Setting up the symmetry group for a 
 hexagonal supercell.


 Subroutine GETGRP returns: Found  2 space group operations
 (whereof  2 operations were pure point group operations)
 out of a pool of 24 trial point group operations.


The dynamic configuration has the point symmetry C_1h.


Analysis of structural, dynamic, and magnetic symmetry:
=====================================================================
 Subroutine PRICEL returns:
 Original cell was already a primitive cell.
 

 Routine SETGRP: Setting up the symmetry group for a 
 hexagonal supercell.


 Subroutine GETGRP returns: Found  1 space group operations
 (whereof  1 operations were pure point group operations)
 out of a pool of 24 trial point group operations.


The overall configuration has the point symmetry C_1 .


 Subroutine INISYM returns: Found  1 space group operations
 (whereof  1 operations are pure point group operations),
 and found     1 'primitive' translations


----------------------------------------------------------------------------------------

                                     Primitive cell                                     

  volume of cell :     143.1852

  direct lattice vectors                    reciprocal lattice vectors
     3.320000000  0.000000000  0.000000000     0.301204819  0.173900683  0.000000000
    -1.660000000  2.875204341  0.000000000     0.000000000  0.347801367  0.000000000
     0.000000000  0.000000000 15.000000000     0.000000000  0.000000000  0.066666667

  length of vectors
     3.320000000  3.320000000 15.000000000     0.347801367  0.347801367  0.066666667

  position of ions in fractional coordinates (direct lattice)
     0.656360473  0.328183185  0.500455147
     0.989670353  0.994833693  0.389220100
     0.989712767  0.994854919  0.611690486

  ion indices of the primitive-cell ions
   primitive index   ion index
                 1           1
                 2           2
                 3           3

----------------------------------------------------------------------------------------

 
 
 KPOINTS: Automatic mesh                          

Automatic generation of k-mesh.
 Grid dimensions read from file:
 generate k-points for:    9    9    1

 Generating k-lattice:

  Cartesian coordinates                     Fractional coordinates (reciprocal lattice)
     0.033467202  0.019322298  0.000000000     0.111111111 -0.000000000  0.000000000
     0.000000000  0.038644596  0.000000000     0.000000000  0.111111111  0.000000000
     0.000000000  0.000000000  0.066666667     0.000000000  0.000000000  1.000000000

  Length of vectors
     0.038644596  0.038644596  0.066666667

  Shift w.r.t. Gamma in fractional coordinates (k-lattice)
     0.000000000  0.000000000  0.000000000

 
 Subroutine IBZKPT returns following result:
 ===========================================
 
 Found     81 irreducible k-points:
 
 Following reciprocal coordinates:
            Coordinates               Weight
  0.000000  0.000000  0.000000      1.000000
  0.111111 -0.000000  0.000000      1.000000
 -0.111111  0.000000  0.000000      1.000000
  0.000000  0.111111  0.000000      1.000000
  0.000000 -0.111111  0.000000      1.000000
 -0.111111  0.111111  0.000000      1.000000
  0.111111 -0.111111  0.000000      1.000000
  0.222222  0.000000  0.000000      1.000000
 -0.222222 -0.000000  0.000000      1.000000
  0.000000  0.222222  0.000000      1.000000
  0.000000 -0.222222  0.000000      1.000000
 -0.222222  0.222222  0.000000      1.000000
  0.222222 -0.222222  0.000000      1.000000
  0.333333 -0.000000  0.000000      1.000000
 -0.333333  0.000000  0.000000      1.000000
  0.000000  0.333333  0.000000      1.000000
  0.000000 -0.333333  0.000000      1.000000
 -0.333333  0.333333  0.000000      1.000000
  0.333333 -0.333333  0.000000      1.000000
  0.444444  0.000000  0.000000      1.000000
 -0.444444 -0.000000  0.000000      1.000000
  0.000000  0.444444  0.000000      1.000000
  0.000000 -0.444444  0.000000      1.000000
 -0.444444  0.444444  0.000000      1.000000
  0.444444 -0.444444  0.000000      1.000000
  0.111111  0.111111  0.000000      1.000000
 -0.111111 -0.111111  0.000000      1.000000
 -0.111111  0.222222  0.000000      1.000000
  0.111111 -0.222222  0.000000      1.000000
 -0.222222  0.111111  0.000000      1.000000
  0.222222 -0.111111  0.000000      1.000000
  0.222222  0.111111  0.000000      1.000000
 -0.222222 -0.111111  0.000000      1.000000
 -0.111111  0.333333  0.000000      1.000000
  0.111111 -0.333333  0.000000      1.000000
 -0.333333  0.222222  0.000000      1.000000
  0.333333 -0.222222  0.000000      1.000000
 -0.222222  0.333333  0.000000      1.000000
  0.222222 -0.333333  0.000000      1.000000
  0.111111  0.222222  0.000000      1.000000
 -0.111111 -0.222222  0.000000      1.000000
  0.333333 -0.111111  0.000000      1.000000
 -0.333333  0.111111  0.000000      1.000000
  0.333333  0.111111  0.000000      1.000000
 -0.333333 -0.111111  0.000000      1.000000
 -0.111111  0.444444  0.000000      1.000000
  0.111111 -0.444444  0.000000      1.000000
 -0.444444  0.333333  0.000000      1.000000
  0.444444 -0.333333  0.000000      1.000000
 -0.333333  0.444444  0.000000      1.000000
  0.333333 -0.444444  0.000000      1.000000
  0.111111  0.333333  0.000000      1.000000
 -0.111111 -0.333333  0.000000      1.000000
  0.444444 -0.111111  0.000000      1.000000
 -0.444444  0.111111  0.000000      1.000000
  0.444444  0.111111  0.000000      1.000000
 -0.444444 -0.111111  0.000000      1.000000
 -0.111111 -0.444444  0.000000      1.000000
  0.111111  0.444444  0.000000      1.000000
  0.444444  0.444444  0.000000      1.000000
 -0.444444 -0.444444  0.000000      1.000000
  0.222222  0.222222  0.000000      1.000000
 -0.222222 -0.222222  0.000000      1.000000
 -0.222222  0.444444  0.000000      1.000000
  0.222222 -0.444444  0.000000      1.000000
 -0.444444  0.222222  0.000000      1.000000
  0.444444 -0.222222  0.000000      1.000000
  0.333333  0.222222  0.000000      1.000000
 -0.333333 -0.222222  0.000000      1.000000
 -0.222222 -0.444444  0.000000      1.000000
  0.222222  0.444444  0.000000      1.000000
  0.444444  0.333333  0.000000      1.000000
 -0.444444 -0.333333  0.000000      1.000000
 -0.333333 -0.444444  0.000000      1.000000
  0.333333  0.444444  0.000000      1.000000
  0.222222  0.333333  0.000000      1.000000
 -0.222222 -0.333333  0.000000      1.000000
 -0.444444 -0.222222  0.000000      1.000000
  0.444444  0.222222  0.000000      1.000000
  0.333333  0.333333  0.000000      1.000000
 -0.333333 -0.333333  0.000000      1.000000
 
 Following cartesian coordinates:
            Coordinates               Weight
  0.000000  0.000000  0.000000      1.000000
  0.033467  0.019322  0.000000      1.000000
 -0.033467 -0.019322  0.000000      1.000000
  0.000000  0.038645  0.000000      1.000000
  0.000000 -0.038645  0.000000      1.000000
 -0.033467  0.019322  0.000000      1.000000
  0.033467 -0.019322  0.000000      1.000000
  0.066934  0.038645  0.000000      1.000000
 -0.066934 -0.038645  0.000000      1.000000
  0.000000  0.077289  0.000000      1.000000
  0.000000 -0.077289  0.000000      1.000000
 -0.066934  0.038645  0.000000      1.000000
  0.066934 -0.038645  0.000000      1.000000
  0.100402  0.057967  0.000000      1.000000
 -0.100402 -0.057967  0.000000      1.000000
  0.000000  0.115934  0.000000      1.000000
  0.000000 -0.115934  0.000000      1.000000
 -0.100402  0.057967  0.000000      1.000000
  0.100402 -0.057967  0.000000      1.000000
  0.133869  0.077289  0.000000      1.000000
 -0.133869 -0.077289  0.000000      1.000000
  0.000000  0.154578  0.000000      1.000000
  0.000000 -0.154578  0.000000      1.000000
 -0.133869  0.077289  0.000000      1.000000
  0.133869 -0.077289  0.000000      1.000000
  0.033467  0.057967  0.000000      1.000000
 -0.033467 -0.057967  0.000000      1.000000
 -0.033467  0.057967  0.000000      1.000000
  0.033467 -0.057967  0.000000      1.000000
 -0.066934 -0.000000  0.000000      1.000000
  0.066934  0.000000  0.000000      1.000000
  0.066934  0.077289  0.000000      1.000000
 -0.066934 -0.077289  0.000000      1.000000
 -0.033467  0.096611  0.000000      1.000000
  0.033467 -0.096611  0.000000      1.000000
 -0.100402  0.019322  0.000000      1.000000
  0.100402 -0.019322  0.000000      1.000000
 -0.066934  0.077289  0.000000      1.000000
  0.066934 -0.077289  0.000000      1.000000
  0.033467  0.096611  0.000000      1.000000
 -0.033467 -0.096611  0.000000      1.000000
  0.100402  0.019322  0.000000      1.000000
 -0.100402 -0.019322  0.000000      1.000000
  0.100402  0.096611  0.000000      1.000000
 -0.100402 -0.096611  0.000000      1.000000
 -0.033467  0.135256  0.000000      1.000000
  0.033467 -0.135256  0.000000      1.000000
 -0.133869  0.038645  0.000000      1.000000
  0.133869 -0.038645  0.000000      1.000000
 -0.100402  0.096611  0.000000      1.000000
  0.100402 -0.096611  0.000000      1.000000
  0.033467  0.135256  0.000000      1.000000
 -0.033467 -0.135256  0.000000      1.000000
  0.133869  0.038645  0.000000      1.000000
 -0.133869 -0.038645  0.000000      1.000000
  0.133869  0.115934  0.000000      1.000000
 -0.133869 -0.115934  0.000000      1.000000
 -0.033467 -0.173901  0.000000      1.000000
  0.033467  0.173901  0.000000      1.000000
  0.133869  0.231868  0.000000      1.000000
 -0.133869 -0.231868  0.000000      1.000000
  0.066934  0.115934  0.000000      1.000000
 -0.066934 -0.115934  0.000000      1.000000
 -0.066934  0.115934  0.000000      1.000000
  0.066934 -0.115934  0.000000      1.000000
 -0.133869 -0.000000  0.000000      1.000000
  0.133869  0.000000  0.000000      1.000000
  0.100402  0.135256  0.000000      1.000000
 -0.100402 -0.135256  0.000000      1.000000
 -0.066934 -0.193223  0.000000      1.000000
  0.066934  0.193223  0.000000      1.000000
  0.133869  0.193223  0.000000      1.000000
 -0.133869 -0.193223  0.000000      1.000000
 -0.100402 -0.212545  0.000000      1.000000
  0.100402  0.212545  0.000000      1.000000
  0.066934  0.154578  0.000000      1.000000
 -0.066934 -0.154578  0.000000      1.000000
 -0.133869 -0.154578  0.000000      1.000000
  0.133869  0.154578  0.000000      1.000000
  0.100402  0.173901  0.000000      1.000000
 -0.100402 -0.173901  0.000000      1.000000
 
 
 Subroutine IBZKPT_HF returns following result:
 ==============================================
 
 Found     81 k-points in 1st BZ
 the following     81 k-points will be used (e.g. in the exchange kernel)
 Following reciprocal coordinates:   # in IRBZ
  0.000000  0.000000  0.000000    0.01234568   1 t-inv F
  0.111111 -0.000000  0.000000    0.01234568   2 t-inv F
 -0.111111  0.000000  0.000000    0.01234568   3 t-inv F
  0.000000  0.111111  0.000000    0.01234568   4 t-inv F
  0.000000 -0.111111  0.000000    0.01234568   5 t-inv F
 -0.111111  0.111111  0.000000    0.01234568   6 t-inv F
  0.111111 -0.111111  0.000000    0.01234568   7 t-inv F
  0.222222  0.000000  0.000000    0.01234568   8 t-inv F
 -0.222222 -0.000000  0.000000    0.01234568   9 t-inv F
  0.000000  0.222222  0.000000    0.01234568  10 t-inv F
  0.000000 -0.222222  0.000000    0.01234568  11 t-inv F
 -0.222222  0.222222  0.000000    0.01234568  12 t-inv F
  0.222222 -0.222222  0.000000    0.01234568  13 t-inv F
  0.333333 -0.000000  0.000000    0.01234568  14 t-inv F
 -0.333333  0.000000  0.000000    0.01234568  15 t-inv F
  0.000000  0.333333  0.000000    0.01234568  16 t-inv F
  0.000000 -0.333333  0.000000    0.01234568  17 t-inv F
 -0.333333  0.333333  0.000000    0.01234568  18 t-inv F
  0.333333 -0.333333  0.000000    0.01234568  19 t-inv F
  0.444444  0.000000  0.000000    0.01234568  20 t-inv F
 -0.444444 -0.000000  0.000000    0.01234568  21 t-inv F
  0.000000  0.444444  0.000000    0.01234568  22 t-inv F
  0.000000 -0.444444  0.000000    0.01234568  23 t-inv F
 -0.444444  0.444444  0.000000    0.01234568  24 t-inv F
  0.444444 -0.444444  0.000000    0.01234568  25 t-inv F
  0.111111  0.111111  0.000000    0.01234568  26 t-inv F
 -0.111111 -0.111111  0.000000    0.01234568  27 t-inv F
 -0.111111  0.222222  0.000000    0.01234568  28 t-inv F
  0.111111 -0.222222  0.000000    0.01234568  29 t-inv F
 -0.222222  0.111111  0.000000    0.01234568  30 t-inv F
  0.222222 -0.111111  0.000000    0.01234568  31 t-inv F
  0.222222  0.111111  0.000000    0.01234568  32 t-inv F
 -0.222222 -0.111111  0.000000    0.01234568  33 t-inv F
 -0.111111  0.333333  0.000000    0.01234568  34 t-inv F
  0.111111 -0.333333  0.000000    0.01234568  35 t-inv F
 -0.333333  0.222222  0.000000    0.01234568  36 t-inv F
  0.333333 -0.222222  0.000000    0.01234568  37 t-inv F
 -0.222222  0.333333  0.000000    0.01234568  38 t-inv F
  0.222222 -0.333333  0.000000    0.01234568  39 t-inv F
  0.111111  0.222222  0.000000    0.01234568  40 t-inv F
 -0.111111 -0.222222  0.000000    0.01234568  41 t-inv F
  0.333333 -0.111111  0.000000    0.01234568  42 t-inv F
 -0.333333  0.111111  0.000000    0.01234568  43 t-inv F
  0.333333  0.111111  0.000000    0.01234568  44 t-inv F
 -0.333333 -0.111111  0.000000    0.01234568  45 t-inv F
 -0.111111  0.444444  0.000000    0.01234568  46 t-inv F
  0.111111 -0.444444  0.000000    0.01234568  47 t-inv F
 -0.444444  0.333333  0.000000    0.01234568  48 t-inv F
  0.444444 -0.333333  0.000000    0.01234568  49 t-inv F
 -0.333333  0.444444  0.000000    0.01234568  50 t-inv F
  0.333333 -0.444444  0.000000    0.01234568  51 t-inv F
  0.111111  0.333333  0.000000    0.01234568  52 t-inv F
 -0.111111 -0.333333  0.000000    0.01234568  53 t-inv F
  0.444444 -0.111111  0.000000    0.01234568  54 t-inv F
 -0.444444  0.111111  0.000000    0.01234568  55 t-inv F
  0.444444  0.111111  0.000000    0.01234568  56 t-inv F
 -0.444444 -0.111111  0.000000    0.01234568  57 t-inv F
 -0.111111 -0.444444  0.000000    0.01234568  58 t-inv F
  0.111111  0.444444  0.000000    0.01234568  59 t-inv F
  0.444444  0.444444  0.000000    0.01234568  60 t-inv F
 -0.444444 -0.444444  0.000000    0.01234568  61 t-inv F
  0.222222  0.222222  0.000000    0.01234568  62 t-inv F
 -0.222222 -0.222222  0.000000    0.01234568  63 t-inv F
 -0.222222  0.444444  0.000000    0.01234568  64 t-inv F
  0.222222 -0.444444  0.000000    0.01234568  65 t-inv F
 -0.444444  0.222222  0.000000    0.01234568  66 t-inv F
  0.444444 -0.222222  0.000000    0.01234568  67 t-inv F
  0.333333  0.222222  0.000000    0.01234568  68 t-inv F
 -0.333333 -0.222222  0.000000    0.01234568  69 t-inv F
 -0.222222 -0.444444  0.000000    0.01234568  70 t-inv F
  0.222222  0.444444  0.000000    0.01234568  71 t-inv F
  0.444444  0.333333  0.000000    0.01234568  72 t-inv F
 -0.444444 -0.333333  0.000000    0.01234568  73 t-inv F
 -0.333333 -0.444444  0.000000    0.01234568  74 t-inv F
  0.333333  0.444444  0.000000    0.01234568  75 t-inv F
  0.222222  0.333333  0.000000    0.01234568  76 t-inv F
 -0.222222 -0.333333  0.000000    0.01234568  77 t-inv F
 -0.444444 -0.222222  0.000000    0.01234568  78 t-inv F
  0.444444  0.222222  0.000000    0.01234568  79 t-inv F
  0.333333  0.333333  0.000000    0.01234568  80 t-inv F
 -0.333333 -0.333333  0.000000    0.01234568  81 t-inv F


--------------------------------------------------------------------------------------------------------




 Dimension of arrays:
   k-points           NKPTS =     81   k-points in BZ     NKDIM =     81   number of bands    NBANDS=     32
   number of dos      NEDOS =    301   number of ions     NIONS =      3
   non local maximal  LDIM  =      6   non local SUM 2l+1 LMDIM =     18
   total plane-waves  NPLWV =  20480
   max r-space proj   IRMAX =      1   max aug-charges    IRDMAX=   9382
   dimension x,y,z NGX =    16 NGY =   16 NGZ =   80
   dimension x,y,z NGXF=    32 NGYF=   32 NGZF=  160
   support grid    NGXF=    32 NGYF=   32 NGZF=  160
   ions per type =               1   2
   NGX,Y,Z   is equivalent  to a cutoff of   8.01,  8.01,  8.87 a.u.
   NGXF,Y,Z  is equivalent  to a cutoff of  16.02, 16.02, 17.73 a.u.

 SYSTEM =  MoSe2                                   
 POSCAR =  Mo  S                                   

 Startparameter for this run:
   NWRITE =      1    write-flag & timer
   PREC   = accura    normal or accurate (medium, high low for compatibility)
   ISTART =      0    job   : 0-new  1-cont  2-samecut
   ICHARG =      1    charge: 1-file 2-atom 10-const
   ISPIN  =      1    spin polarized calculation?
   LNONCOLLINEAR =      T non collinear calculations
   LSORBIT =      T    spin-orbit coupling
   INIWAV =      1    electr: 0-lowe 1-rand  2-diag
   LASPH  =      F    aspherical Exc in radial PAW
 Electronic Relaxation 1
   ENCUT  =  224.6 eV  16.51 Ry    4.06 a.u.   4.06  4.06 18.33*2*pi/ulx,y,z
   ENINI  =  224.6     initial cutoff
   ENAUG  =  446.8 eV  augmentation charge cutoff
   NELM   =    200;   NELMIN=  4; NELMDL= -5     # of ELM steps 
   EDIFF  = 0.1E-05   stopping-criterion for ELM
   LREAL  =      F    real-space projection
   NLSPLINE    = F    spline interpolate recip. space projectors
   LCOMPAT=      F    compatible to vasp.4.4
   GGA_COMPAT  = T    GGA compatible to vasp.4.4-vasp.4.6
   LMAXPAW     = -100 max onsite density
   LMAXMIX     =    2 max onsite mixed and CHGCAR
   VOSKOWN=      0    Vosko Wilk Nusair interpolation
   ROPT   =    0.00000   0.00000
 Ionic relaxation
   EDIFFG = 0.1E-04   stopping-criterion for IOM
   NSW    =      0    number of steps for IOM
   NBLOCK =      1;   KBLOCK =      1    inner block; outer block 
   IBRION =     -1    ionic relax: 0-MD 1-quasi-New 2-CG
   NFREE  =      0    steps in history (QN), initial steepest desc. (CG)
   ISIF   =      0    stress and relaxation
   IWAVPR =     10    prediction:  0-non 1-charg 2-wave 3-comb
   ISYM   =      3    0-nonsym 1-usesym 2-fastsym
   LCORR  =      T    Harris-Foulkes like correction to forces

   POTIM  = 0.5000    time-step for ionic-motion
   TEIN   =    0.0    initial temperature
   TEBEG  =    0.0;   TEEND  =   0.0 temperature during run
   SMASS  =  -3.00    Nose mass-parameter (am)
   estimated Nose-frequenzy (Omega)   =  0.10E-29 period in steps = 0.13E+47 mass=  -0.252E-27a.u.
   SCALEE = 1.0000    scale energy and forces
   NPACO  =    256;   APACO  = 10.0  distance and # of slots for P.C.
   PSTRESS=    0.0 pullay stress

  Mass of Ions in am
   POMASS =  95.94 78.96
  Ionic Valenz
   ZVAL   =   6.00  6.00
  Atomic Wigner-Seitz radii
   RWIGS  =  -1.00 -1.00
  virtual crystal weights 
   VCA    =   1.00  1.00
   NELECT =      18.0000    total number of electrons
   NUPDOWN=      -1.0000    fix difference up-down

 DOS related values:
   EMIN   =  10.00;   EMAX   =-10.00  energy-range for DOS
   EFERMI =   0.00
   ISMEAR =     0;   SIGMA  =   0.10  broadening in eV -4-tet -1-fermi 0-gaus

 Electronic relaxation 2 (details)
   IALGO  =     53    algorithm
   LDIAG  =      T    sub-space diagonalisation (order eigenvalues)
   LSUBROT=      F    optimize rotation matrix (better conditioning)
   TURBO    =      0    0=normal 1=particle mesh
   IRESTART =      0    0=no restart 2=restart with 2 vectors
   NREBOOT  =      0    no. of reboots
   NMIN     =      0    reboot dimension
   EREF     =   0.00    reference energy to select bands
   IMIX   =      4    mixing-type and parameters
     AMIX     =   0.40;   BMIX     =  1.00
     AMIX_MAG =   1.60;   BMIX_MAG =  1.00
     AMIN     =   0.10
     WC   =   100.;   INIMIX=   1;  MIXPRE=   1;  MAXMIX= -45

 Intra band minimization:
   WEIMIN = 0.0000     energy-eigenvalue tresh-hold
   EBREAK =  0.78E-08  absolut break condition
   DEPER  =   0.30     relativ break condition  

   TIME   =   0.40     timestep for ELM

  volume/ion in A,a.u.               =      47.73       322.09
  Fermi-wavevector in a.u.,A,eV,Ry     =   0.820099  1.549763  9.150768  0.672562
  Thomas-Fermi vector in A             =   1.931021
 
 Write flags
   LWAVE        =      T    write WAVECAR
   LDOWNSAMPLE  =      F    k-point downsampling of WAVECAR
   LCHARG       =      T    write CHGCAR
   LVTOT        =      F    write LOCPOT, total local potential
   LVHAR        =      F    write LOCPOT, Hartree potential only
   LELF         =      F    write electronic localiz. function (ELF)
   LORBIT       =     11    0 simple, 1 ext, 2 COOP (PROOUT), +10 PAW based schemes


 Dipole corrections
   LMONO  =      F    monopole corrections only (constant potential shift)
   LDIPOL =      F    correct potential (dipole corrections)
   IDIPOL =      0    1-x, 2-y, 3-z, 4-all directions 
   EPSILON=  1.0000000 bulk dielectric constant

 Exchange correlation treatment:
   GGA     =    --    GGA type
   LEXCH   =     8    internal setting for exchange type
   LIBXC   =     F    Libxc                    
   VOSKOWN =     0    Vosko Wilk Nusair interpolation
   EXXOEP  =     0    0=HF, 1=EXX-LHF (local Hartree Fock) 2=EXX OEP
   LHFCALC =     T    Hartree Fock is set to
   LSYMGRAD=     F    symmetrize gradient (conserves proper symmetry)
   PRECFOCK=normal    Normal, Fast or Accurate (Low or Medium for compatibility)
   LRHFCALC=     F    long range Hartree Fock
   LRSCOR  =     F    long range correlation only (use DFT for short range part)
   LTHOMAS =     F    Thomas Fermi screening in HF
   LMODELHF=     F    short range full HF, long range fraction AEXX
   LFOCKACE=     T    use Adeptively-Compressed-Exchange operator
   ENCUT4O =  -1.0   cutoff for four orbital integrals eV
   LMAXFOCK=     4    L truncation for augmentation on plane wave grid
   LMAXFOCKAE=  -1    L truncation for all-electron charge restoration on plane wave grid
   NMAXFOCKAE=   1    number of basis functions for all-electron charge restoration
   LFOCKAEDFT=     F  apply the AE augmentation even for DFT
   NKREDX  =     1    reduce k-point grid by
   NKREDY  =     1    reduce k-point grid by
   NKREDZ  =     1    reduce k-point grid by
   SHIFTRED=     F    shift reduced grid of Gamma
   HFKIDENT=     F    idential grid for each k-point
   ODDONLY =     F    use only odd q-grid points
   EVENONLY=     F    use only even q-grid points
   HFALPHA =   -1.0000 decay constant for conv. correction
   MCALPHA =    0.0000 extent of test-charge in conv. correction in multipole expansion
   AEXX    =    0.2500 exact exchange contribution
   HFSCREEN=    0.2000 screening length (either q_TF or 0.3 A-1)
   HFSCREENC=   0.2000 screening length for correlation (either q_TF or 0.3 A-1)
   HFRCUT  =    0.0000 spherical cutoff for potential kernel
   ALDAX   =    0.7500 LDA exchange part
   AGGAX   =    0.7500 GGA exchange part
   ALDAC   =    1.0000 LDA correlation
   AGGAC   =    1.0000 GGA correlation
   ENCUTFOCK=  -1.0 apply spherical cutoff to Coloumb kernel
   NBANDSGWLOW=     1    first orbital included in HF term
   NBLOCK_FOCK=    64    blocking factor in FOCK_ACC

 Linear response parameters
   LEPSILON=     F    determine dielectric tensor
   LRPA    =     F    only Hartree local field effects (RPA)
   LNABLA  =     F    use nabla operator in PAW spheres
   LVEL    =     F    velocity operator in full k-point grid
   CSHIFT  =0.1000    complex shift for real part using Kramers Kronig
   OMEGAMAX=  -1.0    maximum frequency
   DEG_THRESHOLD= 0.2000000E-02 threshold for treating states as degnerate
   RTIME   =   -0.100 relaxation time in fs
  (WPLASMAI=    0.000 imaginary part of plasma frequency in eV, 0.658/RTIME)
   DFIELD  = 0.0000000 0.0000000 0.0000000 field for delta impulse in time
 
  Optional k-point grid parameters
   LKPOINTS_OPT  =     F    use optional k-point grid
   KPOINTS_OPT_MODE=     1    mode for optional k-point grid
 
 Orbital magnetization related:
   ORBITALMAG=     F  switch on orbital magnetization
   LCHIMAG   =     F  perturbation theory with respect to B field
   DQ        =  0.001000  dq finite difference perturbation B field
   LLRAUG    =     F  two centre corrections for induced B field



--------------------------------------------------------------------------------------------------------


 Static calculation
 charge density and potential will be updated during run
 non collinear spin polarized calculation
 Conjugate gradient for all bands (Freysoldt, et al. PRB 79, 241103 (2009))
 perform sub-space diagonalisation
    before iterative eigenvector-optimisation
 modified Broyden-mixing scheme, WC =      100.0
 initial mixing is a Kerker type mixing with AMIX =  0.4000 and BMIX =      1.0000
 Hartree-type preconditioning will be used
 using additional bands           23
 reciprocal scheme for non local part
 use partial core corrections
 no Harris-corrections to forces 
 use gradient corrections 
 use of overlap-Matrix (Vanderbilt PP)
 Gauss-broadening in eV      SIGMA  =   0.10


--------------------------------------------------------------------------------------------------------


  energy-cutoff  :      224.58
  volume of cell :      143.19
      direct lattice vectors                 reciprocal lattice vectors
     3.320000000  0.000000000  0.000000000     0.301204819  0.173900683  0.000000000
    -1.660000000  2.875204341  0.000000000     0.000000000  0.347801367  0.000000000
     0.000000000  0.000000000 15.000000000     0.000000000  0.000000000  0.066666667

  length of vectors
     3.320000000  3.320000000 15.000000000     0.347801367  0.347801367  0.066666667


 
 k-points in units of 2pi/SCALE and weight: Automatic mesh                          
   0.00000000  0.00000000  0.00000000       0.012
   0.03346720  0.01932230  0.00000000       0.012
  -0.03346720 -0.01932230  0.00000000       0.012
   0.00000000  0.03864460  0.00000000       0.012
   0.00000000 -0.03864460  0.00000000       0.012
  -0.03346720  0.01932230  0.00000000       0.012
   0.03346720 -0.01932230  0.00000000       0.012
   0.06693440  0.03864460  0.00000000       0.012
  -0.06693440 -0.03864460  0.00000000       0.012
   0.00000000  0.07728919  0.00000000       0.012
   0.00000000 -0.07728919  0.00000000       0.012
  -0.06693440  0.03864460  0.00000000       0.012
   0.06693440 -0.03864460  0.00000000       0.012
   0.10040161  0.05796689  0.00000000       0.012
  -0.10040161 -0.05796689  0.00000000       0.012
   0.00000000  0.11593379  0.00000000       0.012
   0.00000000 -0.11593379  0.00000000       0.012
  -0.10040161  0.05796689  0.00000000       0.012
   0.10040161 -0.05796689  0.00000000       0.012
   0.13386881  0.07728919  0.00000000       0.012
  -0.13386881 -0.07728919  0.00000000       0.012
   0.00000000  0.15457839  0.00000000       0.012
   0.00000000 -0.15457839  0.00000000       0.012
  -0.13386881  0.07728919  0.00000000       0.012
   0.13386881 -0.07728919  0.00000000       0.012
   0.03346720  0.05796689  0.00000000       0.012
  -0.03346720 -0.05796689  0.00000000       0.012
  -0.03346720  0.05796689  0.00000000       0.012
   0.03346720 -0.05796689  0.00000000       0.012
  -0.06693440 -0.00000000  0.00000000       0.012
   0.06693440  0.00000000  0.00000000       0.012
   0.06693440  0.07728919  0.00000000       0.012
  -0.06693440 -0.07728919  0.00000000       0.012
  -0.03346720  0.09661149  0.00000000       0.012
   0.03346720 -0.09661149  0.00000000       0.012
  -0.10040161  0.01932230  0.00000000       0.012
   0.10040161 -0.01932230  0.00000000       0.012
  -0.06693440  0.07728919  0.00000000       0.012
   0.06693440 -0.07728919  0.00000000       0.012
   0.03346720  0.09661149  0.00000000       0.012
  -0.03346720 -0.09661149  0.00000000       0.012
   0.10040161  0.01932230  0.00000000       0.012
  -0.10040161 -0.01932230  0.00000000       0.012
   0.10040161  0.09661149  0.00000000       0.012
  -0.10040161 -0.09661149  0.00000000       0.012
  -0.03346720  0.13525609  0.00000000       0.012
   0.03346720 -0.13525609  0.00000000       0.012
  -0.13386881  0.03864460  0.00000000       0.012
   0.13386881 -0.03864460  0.00000000       0.012
  -0.10040161  0.09661149  0.00000000       0.012
   0.10040161 -0.09661149  0.00000000       0.012
   0.03346720  0.13525609  0.00000000       0.012
  -0.03346720 -0.13525609  0.00000000       0.012
   0.13386881  0.03864460  0.00000000       0.012
  -0.13386881 -0.03864460  0.00000000       0.012
   0.13386881  0.11593379  0.00000000       0.012
  -0.13386881 -0.11593379  0.00000000       0.012
  -0.03346720 -0.17390068  0.00000000       0.012
   0.03346720  0.17390068  0.00000000       0.012
   0.13386881  0.23186758  0.00000000       0.012
  -0.13386881 -0.23186758  0.00000000       0.012
   0.06693440  0.11593379  0.00000000       0.012
  -0.06693440 -0.11593379  0.00000000       0.012
  -0.06693440  0.11593379  0.00000000       0.012
   0.06693440 -0.11593379  0.00000000       0.012
  -0.13386881  0.00000000  0.00000000       0.012
   0.13386881 -0.00000000  0.00000000       0.012
   0.10040161  0.13525609  0.00000000       0.012
  -0.10040161 -0.13525609  0.00000000       0.012
  -0.06693440 -0.19322298  0.00000000       0.012
   0.06693440  0.19322298  0.00000000       0.012
   0.13386881  0.19322298  0.00000000       0.012
  -0.13386881 -0.19322298  0.00000000       0.012
  -0.10040161 -0.21254528  0.00000000       0.012
   0.10040161  0.21254528  0.00000000       0.012
   0.06693440  0.15457839  0.00000000       0.012
  -0.06693440 -0.15457839  0.00000000       0.012
  -0.13386881 -0.15457839  0.00000000       0.012
   0.13386881  0.15457839  0.00000000       0.012
   0.10040161  0.17390068  0.00000000       0.012
  -0.10040161 -0.17390068  0.00000000       0.012
 
 k-points in reciprocal lattice and weights: Automatic mesh                          
   0.00000000  0.00000000  0.00000000       0.012
   0.11111111 -0.00000000  0.00000000       0.012
  -0.11111111  0.00000000  0.00000000       0.012
   0.00000000  0.11111111  0.00000000       0.012
   0.00000000 -0.11111111  0.00000000       0.012
  -0.11111111  0.11111111  0.00000000       0.012
   0.11111111 -0.11111111  0.00000000       0.012
   0.22222222  0.00000000  0.00000000       0.012
  -0.22222222 -0.00000000  0.00000000       0.012
   0.00000000  0.22222222  0.00000000       0.012
   0.00000000 -0.22222222  0.00000000       0.012
  -0.22222222  0.22222222  0.00000000       0.012
   0.22222222 -0.22222222  0.00000000       0.012
   0.33333333 -0.00000000  0.00000000       0.012
  -0.33333333  0.00000000  0.00000000       0.012
   0.00000000  0.33333333  0.00000000       0.012
   0.00000000 -0.33333333  0.00000000       0.012
  -0.33333333  0.33333333  0.00000000       0.012
   0.33333333 -0.33333333  0.00000000       0.012
   0.44444444  0.00000000  0.00000000       0.012
  -0.44444444 -0.00000000  0.00000000       0.012
   0.00000000  0.44444444  0.00000000       0.012
   0.00000000 -0.44444444  0.00000000       0.012
  -0.44444444  0.44444444  0.00000000       0.012
   0.44444444 -0.44444444  0.00000000       0.012
   0.11111111  0.11111111  0.00000000       0.012
  -0.11111111 -0.11111111  0.00000000       0.012
  -0.11111111  0.22222222  0.00000000       0.012
   0.11111111 -0.22222222  0.00000000       0.012
  -0.22222222  0.11111111  0.00000000       0.012
   0.22222222 -0.11111111  0.00000000       0.012
   0.22222222  0.11111111  0.00000000       0.012
  -0.22222222 -0.11111111  0.00000000       0.012
  -0.11111111  0.33333333  0.00000000       0.012
   0.11111111 -0.33333333  0.00000000       0.012
  -0.33333333  0.22222222  0.00000000       0.012
   0.33333333 -0.22222222  0.00000000       0.012
  -0.22222222  0.33333333  0.00000000       0.012
   0.22222222 -0.33333333  0.00000000       0.012
   0.11111111  0.22222222  0.00000000       0.012
  -0.11111111 -0.22222222  0.00000000       0.012
   0.33333333 -0.11111111  0.00000000       0.012
  -0.33333333  0.11111111  0.00000000       0.012
   0.33333333  0.11111111  0.00000000       0.012
  -0.33333333 -0.11111111  0.00000000       0.012
  -0.11111111  0.44444444  0.00000000       0.012
   0.11111111 -0.44444444  0.00000000       0.012
  -0.44444444  0.33333333  0.00000000       0.012
   0.44444444 -0.33333333  0.00000000       0.012
  -0.33333333  0.44444444  0.00000000       0.012
   0.33333333 -0.44444444  0.00000000       0.012
   0.11111111  0.33333333  0.00000000       0.012
  -0.11111111 -0.33333333  0.00000000       0.012
   0.44444444 -0.11111111  0.00000000       0.012
  -0.44444444  0.11111111  0.00000000       0.012
   0.44444444  0.11111111  0.00000000       0.012
  -0.44444444 -0.11111111  0.00000000       0.012
  -0.11111111 -0.44444444  0.00000000       0.012
   0.11111111  0.44444444  0.00000000       0.012
   0.44444444  0.44444444  0.00000000       0.012
  -0.44444444 -0.44444444  0.00000000       0.012
   0.22222222  0.22222222  0.00000000       0.012
  -0.22222222 -0.22222222  0.00000000       0.012
  -0.22222222  0.44444444  0.00000000       0.012
   0.22222222 -0.44444444  0.00000000       0.012
  -0.44444444  0.22222222  0.00000000       0.012
   0.44444444 -0.22222222  0.00000000       0.012
   0.33333333  0.22222222  0.00000000       0.012
  -0.33333333 -0.22222222  0.00000000       0.012
  -0.22222222 -0.44444444  0.00000000       0.012
   0.22222222  0.44444444  0.00000000       0.012
   0.44444444  0.33333333  0.00000000       0.012
  -0.44444444 -0.33333333  0.00000000       0.012
  -0.33333333 -0.44444444  0.00000000       0.012
   0.33333333  0.44444444  0.00000000       0.012
   0.22222222  0.33333333  0.00000000       0.012
  -0.22222222 -0.33333333  0.00000000       0.012
  -0.44444444 -0.22222222  0.00000000       0.012
   0.44444444  0.22222222  0.00000000       0.012
   0.33333333  0.33333333  0.00000000       0.012
  -0.33333333 -0.33333333  0.00000000       0.012
 
 position of ions in fractional coordinates (direct lattice) 
   0.65636047  0.32818318  0.50045515
   0.98967035  0.99483369  0.38922010
   0.98971277  0.99485492  0.61169049
 
 position of ions in cartesian coordinates  (Angst):
   1.63433268  0.94359372  7.50682721
   1.63428164  2.86035015  5.83830150
   1.63438722  2.86041118  9.17535730
 
 Euler angles ALPHA=     0.0000000  BETA=     0.0000000

 transformation matrix from SAXIS to cartesian coordinates
 ---------------------------------------------------------
     1.0000000 m_x     0.0000000 m_y     0.0000000 m_z
     0.0000000 m_x     1.0000000 m_y     0.0000000 m_z
     0.0000000 m_x     0.0000000 m_y     1.0000000 m_z

 transformation matrix from cartesian coordinates to SAXIS
 ---------------------------------------------------------
     1.0000000 m_x     0.0000000 m_y     0.0000000 m_z
     0.0000000 m_x     1.0000000 m_y     0.0000000 m_z
     0.0000000 m_x     0.0000000 m_y     1.0000000 m_z




--------------------------------------------------------------------------------------------------------


 k-point   1 :   0.0000 0.0000 0.0000  plane waves:    2150
 k-point   2 :   0.1111-0.0000 0.0000  plane waves:    2122
 k-point   3 :  -0.1111 0.0000 0.0000  plane waves:    2122
 k-point   4 :   0.0000 0.1111 0.0000  plane waves:    2122
 k-point   5 :   0.0000-0.1111 0.0000  plane waves:    2122
 k-point   6 :  -0.1111 0.1111 0.0000  plane waves:    2122
 k-point   7 :   0.1111-0.1111 0.0000  plane waves:    2122
 k-point   8 :   0.2222 0.0000 0.0000  plane waves:    2166
 k-point   9 :  -0.2222-0.0000 0.0000  plane waves:    2166
 k-point  10 :   0.0000 0.2222 0.0000  plane waves:    2166
 k-point  11 :   0.0000-0.2222 0.0000  plane waves:    2166
 k-point  12 :  -0.2222 0.2222 0.0000  plane waves:    2166
 k-point  13 :   0.2222-0.2222 0.0000  plane waves:    2166
 k-point  14 :   0.3333-0.0000 0.0000  plane waves:    2170
 k-point  15 :  -0.3333 0.0000 0.0000  plane waves:    2170
 k-point  16 :   0.0000 0.3333 0.0000  plane waves:    2170
 k-point  17 :   0.0000-0.3333 0.0000  plane waves:    2170
 k-point  18 :  -0.3333 0.3333 0.0000  plane waves:    2170
 k-point  19 :   0.3333-0.3333 0.0000  plane waves:    2170
 k-point  20 :   0.4444 0.0000 0.0000  plane waves:    2198
 k-point  21 :  -0.4444-0.0000 0.0000  plane waves:    2198
 k-point  22 :   0.0000 0.4444 0.0000  plane waves:    2198
 k-point  23 :   0.0000-0.4444 0.0000  plane waves:    2198
 k-point  24 :  -0.4444 0.4444 0.0000  plane waves:    2198
 k-point  25 :   0.4444-0.4444 0.0000  plane waves:    2198
 k-point  26 :   0.1111 0.1111 0.0000  plane waves:    2164
 k-point  27 :  -0.1111-0.1111 0.0000  plane waves:    2164
 k-point  28 :  -0.1111 0.2222 0.0000  plane waves:    2164
 k-point  29 :   0.1111-0.2222 0.0000  plane waves:    2164
 k-point  30 :  -0.2222 0.1111 0.0000  plane waves:    2164
 k-point  31 :   0.2222-0.1111 0.0000  plane waves:    2164
 k-point  32 :   0.2222 0.1111 0.0000  plane waves:    2194
 k-point  33 :  -0.2222-0.1111 0.0000  plane waves:    2194
 k-point  34 :  -0.1111 0.3333 0.0000  plane waves:    2194
 k-point  35 :   0.1111-0.3333 0.0000  plane waves:    2194
 k-point  36 :  -0.3333 0.2222 0.0000  plane waves:    2194
 k-point  37 :   0.3333-0.2222 0.0000  plane waves:    2194
 k-point  38 :  -0.2222 0.3333 0.0000  plane waves:    2194
 k-point  39 :   0.2222-0.3333 0.0000  plane waves:    2194
 k-point  40 :   0.1111 0.2222 0.0000  plane waves:    2194
 k-point  41 :  -0.1111-0.2222 0.0000  plane waves:    2194
 k-point  42 :   0.3333-0.1111 0.0000  plane waves:    2194
 k-point  43 :  -0.3333 0.1111 0.0000  plane waves:    2194
 k-point  44 :   0.3333 0.1111 0.0000  plane waves:    2206
 k-point  45 :  -0.3333-0.1111 0.0000  plane waves:    2206
 k-point  46 :  -0.1111 0.4444 0.0000  plane waves:    2206
 k-point  47 :   0.1111-0.4444 0.0000  plane waves:    2206
 k-point  48 :  -0.4444 0.3333 0.0000  plane waves:    2206
 k-point  49 :   0.4444-0.3333 0.0000  plane waves:    2206
 k-point  50 :  -0.3333 0.4444 0.0000  plane waves:    2206
 k-point  51 :   0.3333-0.4444 0.0000  plane waves:    2206
 k-point  52 :   0.1111 0.3333 0.0000  plane waves:    2206
 k-point  53 :  -0.1111-0.3333 0.0000  plane waves:    2206
 k-point  54 :   0.4444-0.1111 0.0000  plane waves:    2206
 k-point  55 :  -0.4444 0.1111 0.0000  plane waves:    2206
 k-point  56 :   0.4444 0.1111 0.0000  plane waves:    2208
 k-point  57 :  -0.4444-0.1111 0.0000  plane waves:    2208
 k-point  58 :  -0.1111-0.4444 0.0000  plane waves:    2208
 k-point  59 :   0.1111 0.4444 0.0000  plane waves:    2208
 k-point  60 :   0.4444 0.4444 0.0000  plane waves:    2208
 k-point  61 :  -0.4444-0.4444 0.0000  plane waves:    2208
 k-point  62 :   0.2222 0.2222 0.0000  plane waves:    2192
 k-point  63 :  -0.2222-0.2222 0.0000  plane waves:    2192
 k-point  64 :  -0.2222 0.4444 0.0000  plane waves:    2192
 k-point  65 :   0.2222-0.4444 0.0000  plane waves:    2192
 k-point  66 :  -0.4444 0.2222 0.0000  plane waves:    2192
 k-point  67 :   0.4444-0.2222 0.0000  plane waves:    2192
 k-point  68 :   0.3333 0.2222 0.0000  plane waves:    2222
 k-point  69 :  -0.3333-0.2222 0.0000  plane waves:    2222
 k-point  70 :  -0.2222-0.4444 0.0000  plane waves:    2222
 k-point  71 :   0.2222 0.4444 0.0000  plane waves:    2222
 k-point  72 :   0.4444 0.3333 0.0000  plane waves:    2222
 k-point  73 :  -0.4444-0.3333 0.0000  plane waves:    2222
 k-point  74 :  -0.3333-0.4444 0.0000  plane waves:    2222
 k-point  75 :   0.3333 0.4444 0.0000  plane waves:    2222
 k-point  76 :   0.2222 0.3333 0.0000  plane waves:    2222
 k-point  77 :  -0.2222-0.3333 0.0000  plane waves:    2222
 k-point  78 :  -0.4444-0.2222 0.0000  plane waves:    2222
 k-point  79 :   0.4444 0.2222 0.0000  plane waves:    2222
 k-point  80 :   0.3333 0.3333 0.0000  plane waves:    2184
 k-point  81 :  -0.3333-0.3333 0.0000  plane waves:    2184

 maximum and minimum number of plane-waves per node :       388      328

 maximum number of plane-waves:      2222
 maximum index in each direction: 
   IXMAX=    4   IYMAX=    4   IZMAX=   18
   IXMIN=   -4   IYMIN=   -4   IZMIN=  -18


 parallel 3D FFT for wavefunctions:
    minimum data exchange during FFTs selected (reduces bandwidth)
 parallel 3D FFT for charge:
    minimum data exchange during FFTs selected (reduces bandwidth)


 FFT grid for exact exchange (Hartree Fock) 
  NGX = 14; NGY = 14; NGZ = 60

 
 Radii for the augmentation spheres in the non-local exchange
 for species   1 augmentation radius   1.537 (default was   1.230)
       energy cutoff for augmentation    898.3
 for species   2 augmentation radius   1.351 (default was   1.081)
       energy cutoff for augmentation    898.3

 real space projection operators:
  total allocation   :        574.22 KBytes
  max/ min on nodes  :        131.45         71.68

 Maximum index for augmentation-charges in exchange          277
  SETUP_FOCK is finished

 total amount of memory used by VASP MPI-rank0    43877. kBytes
=======================================================================

   base      :      30000. kBytes
   nonl-proj :       4488. kBytes
   fftplans  :        600. kBytes
   grid      :       1720. kBytes
   one-center:         62. kBytes
   HF        :         64. kBytes
   nonlr-proj:        226. kBytes
   wavefun   :       6717. kBytes
 
     INWAV:  cpu time      0.0000: real time      0.0000
 Broyden mixing: mesh for mixing (old mesh)
   NGX =  9   NGY =  9   NGZ = 37
  (NGX  = 32   NGY  = 32   NGZ  =160)
  gives a total of   2997 points

 initial charge density was supplied:
 number of electron      18.0000002 magnetization       0.0000099      0.0000100      0.0000100
 keeping initial charge density in first step


--------------------------------------------------------------------------------------------------------


 Maximum index for augmentation-charges          379 (set IRDMAX)


--------------------------------------------------------------------------------------------------------


 First call to EWALD:  gamma=   0.339
 Maximum number of real-space cells 5x 5x 1
 Maximum number of reciprocal cells 2x 2x 7

    FEWALD:  cpu time      0.0016: real time      0.0016


--------------------------------------- Iteration      1(   1)  ---------------------------------------


    POTLOK:  cpu time      0.0177: real time      0.0180
    SETDIJ:  cpu time      0.0200: real time      0.0201
    TRIAL :  cpu time      0.8265: real time      0.8327
    CORREC:  cpu time      0.0008: real time      0.0010
    --------------------------------------------
      LOOP:  cpu time      0.8674: real time      0.8751

 eigenvalue-minimisations  :  7744
 total energy-change (2. order) :-0.1823663E+04  (-0.4507809E+03)
 number of electron      18.0000002 magnetization       0.0000099      0.0000100      0.0000100
 augmentation part       18.0000002 magnetization       0.0000099      0.0000100      0.0000100

 Free energy of the ion-electron system (eV)
  ---------------------------------------------------
  alpha Z        PSCENC =        28.99437212
  Ewald energy   TEWEN  =       932.31351475
  -Hartree energ DENC   =     -1639.85597748
  -exchange      EXHF   =         0.00000000
  -V(xc)+E(xc)   XCENC  =       -61.13212529
  PAW double counting   =      1193.20455278    -3002.17525327
  entropy T*S    EENTRO =        -0.01097430
  eigenvalues    EBANDS =         0.20561878
  atomic energy  EATOM  =       724.79368622
  ---------------------------------------------------
  free energy    TOTEN  =     -1823.66258568 eV

  energy without entropy =    -1823.65161138  energy(sigma->0) =    -1823.65709853
  exchange ACFDT corr.  =         0.00000000  see jH, gK, PRB 81, 115126


--------------------------------------------------------------------------------------------------------




--------------------------------------- Iteration      1(   2)  ---------------------------------------


    TRIAL :  cpu time      1.0554: real time      1.0619
    CORREC:  cpu time      0.0010: real time      0.0012
    --------------------------------------------
      LOOP:  cpu time      1.0569: real time      1.0644

 eigenvalue-minimisations  : 10368
 total energy-change (2. order) :-0.1156855E+03  (-0.1061910E+03)
 number of electron      18.0000002 magnetization       0.0000099      0.0000100      0.0000100
 augmentation part       18.0000002 magnetization       0.0000099      0.0000100      0.0000100

 Free energy of the ion-electron system (eV)
  ---------------------------------------------------
  alpha Z        PSCENC =        28.99437212
  Ewald energy   TEWEN  =       932.31351475
  -Hartree energ DENC   =     -1639.85597748
  -exchange      EXHF   =         0.00000000
  -V(xc)+E(xc)   XCENC  =       -61.13212529
  PAW double counting   =      1193.20455278    -3002.17525327
  entropy T*S    EENTRO =        -0.00500188
  eigenvalues    EBANDS =      -115.48581673
  atomic energy  EATOM  =       724.79368622
  ---------------------------------------------------
  free energy    TOTEN  =     -1939.34804877 eV

  energy without entropy =    -1939.34304689  energy(sigma->0) =    -1939.34554783
  exchange ACFDT corr.  =         0.00000000  see jH, gK, PRB 81, 115126


--------------------------------------------------------------------------------------------------------




--------------------------------------- Iteration      1(   3)  ---------------------------------------


    TRIAL :  cpu time      0.9828: real time      0.9890
    CORREC:  cpu time      0.0008: real time      0.0010
    --------------------------------------------
      LOOP:  cpu time      0.9838: real time      0.9903

 eigenvalue-minimisations  :  9704
 total energy-change (2. order) :-0.1428853E+02  (-0.1321308E+02)
 number of electron      18.0000002 magnetization       0.0000099      0.0000100      0.0000100
 augmentation part       18.0000002 magnetization       0.0000099      0.0000100      0.0000100

 Free energy of the ion-electron system (eV)
  ---------------------------------------------------
  alpha Z        PSCENC =        28.99437212
  Ewald energy   TEWEN  =       932.31351475
  -Hartree energ DENC   =     -1639.85597748
  -exchange      EXHF   =         0.00000000
  -V(xc)+E(xc)   XCENC  =       -61.13212529
  PAW double counting   =      1193.20455278    -3002.17525327
  entropy T*S    EENTRO =        -0.00003343
  eigenvalues    EBANDS =      -129.77931724
  atomic energy  EATOM  =       724.79368622
  ---------------------------------------------------
  free energy    TOTEN  =     -1953.63658083 eV

  energy without entropy =    -1953.63654740  energy(sigma->0) =    -1953.63656411
  exchange ACFDT corr.  =         0.00000000  see jH, gK, PRB 81, 115126


--------------------------------------------------------------------------------------------------------




--------------------------------------- Iteration      1(   4)  ---------------------------------------


    TRIAL :  cpu time      1.0206: real time      1.0268
    CORREC:  cpu time      0.0007: real time      0.0009
    --------------------------------------------
      LOOP:  cpu time      1.0215: real time      1.0278

 eigenvalue-minimisations  :  9936
 total energy-change (2. order) :-0.1500169E+01  (-0.1411844E+01)
 number of electron      18.0000002 magnetization       0.0000099      0.0000100      0.0000100
 augmentation part       18.0000002 magnetization       0.0000099      0.0000100      0.0000100

 Free energy of the ion-electron system (eV)
  ---------------------------------------------------
  alpha Z        PSCENC =        28.99437212
  Ewald energy   TEWEN  =       932.31351475
  -Hartree energ DENC   =     -1639.85597748
  -exchange      EXHF   =         0.00000000
  -V(xc)+E(xc)   XCENC  =       -61.13212529
  PAW double counting   =      1193.20455278    -3002.17525327
  entropy T*S    EENTRO =        -0.00000001
  eigenvalues    EBANDS =      -131.27951991
  atomic energy  EATOM  =       724.79368622
  ---------------------------------------------------
  free energy    TOTEN  =     -1955.13675008 eV

  energy without entropy =    -1955.13675007  energy(sigma->0) =    -1955.13675008
  exchange ACFDT corr.  =         0.00000000  see jH, gK, PRB 81, 115126


--------------------------------------------------------------------------------------------------------




--------------------------------------- Iteration      1(   5)  ---------------------------------------


    POTLOK:  cpu time      0.0208: real time      0.0209
    SETDIJ:  cpu time      0.0736: real time      0.0738
    TRIAL :  cpu time     86.7644: real time     87.3273
    CORREC:  cpu time      0.0005: real time      0.0005
    CHARGE:  cpu time      0.0252: real time      0.0256
    --------------------------------------------
      LOOP:  cpu time     86.8847: real time     87.4483

 eigenvalue-minimisations  :  8920
 total energy-change (2. order) : 0.1931947E+04  (-0.1309785E+01)
 number of electron      18.0000002 magnetization      -0.0000534     -0.0000509      0.0002984
 augmentation part       -0.9578530 magnetization       0.0004809      0.0007695     -0.0007498

 Free energy of the ion-electron system (eV)
  ---------------------------------------------------
  alpha Z        PSCENC =        28.99437212
  Ewald energy   TEWEN  =       932.31351475
  -Hartree energ DENC   =     -1639.85597748
  -exchange      EXHF   =        27.04759129
  -V(xc)+E(xc)   XCENC  =       -49.95569750
  PAW double counting   =      1185.02746535    -1106.88814367
  entropy T*S    EENTRO =        -0.00000000
  eigenvalues    EBANDS =      -124.66663747
  atomic energy  EATOM  =       724.79368622
  ---------------------------------------------------
  free energy    TOTEN  =       -23.18982639 eV

  energy without entropy =      -23.18982639  energy(sigma->0) =      -23.18982639
  exchange ACFDT corr.  =        -0.00000000  see jH, gK, PRB 81, 115126


--------------------------------------------------------------------------------------------------------




--------------------------------------- Iteration      1(   6)  ---------------------------------------


    POTLOK:  cpu time      0.0202: real time      0.0203
    SETDIJ:  cpu time      0.0705: real time      0.0707
    TRIAL :  cpu time     85.9259: real time     86.5043
    CORREC:  cpu time      0.0006: real time      0.0008
    CHARGE:  cpu time      0.0243: real time      0.0244
    --------------------------------------------
      LOOP:  cpu time     86.0423: real time     86.6261

 eigenvalue-minimisations  :     0
 total energy-change (2. order) :-0.9864122E-02  (-0.1802173E+01)
 number of electron      18.0000002 magnetization      -0.0000148     -0.0000435      0.0000973
 augmentation part       -1.1231103 magnetization       0.0003353      0.0007288     -0.0007666

 Free energy of the ion-electron system (eV)
  ---------------------------------------------------
  alpha Z        PSCENC =        28.99437212
  Ewald energy   TEWEN  =       932.31351475
  -Hartree energ DENC   =     -1661.43868165
  -exchange      EXHF   =        27.19151599
  -V(xc)+E(xc)   XCENC  =       -50.08681932
  PAW double counting   =      1332.20517603    -1253.98263551
  entropy T*S    EENTRO =        -0.00000000
  eigenvalues    EBANDS =      -103.18981913
  atomic energy  EATOM  =       724.79368622
  ---------------------------------------------------
  free energy    TOTEN  =       -23.19969052 eV

  energy without entropy =      -23.19969052  energy(sigma->0) =      -23.19969052
  exchange ACFDT corr.  =        -0.00000000  see jH, gK, PRB 81, 115126


--------------------------------------------------------------------------------------------------------




--------------------------------------- Iteration      1(   7)  ---------------------------------------


    POTLOK:  cpu time      0.0201: real time      0.0202
    SETDIJ:  cpu time      0.0718: real time      0.0721
    TRIAL :  cpu time     86.0708: real time     86.6802
    CORREC:  cpu time      0.0006: real time      0.0008
    CHARGE:  cpu time      0.0241: real time      0.0242
    --------------------------------------------
      LOOP:  cpu time     86.1880: real time     86.8023

 eigenvalue-minimisations  :     0
 total energy-change (2. order) :-0.5669590E+00  (-0.2058943E+00)
 number of electron      18.0000002 magnetization       0.0000149     -0.0000271      0.0000242
 augmentation part       -1.1305005 magnetization       0.0002009      0.0007206     -0.0006459

 Free energy of the ion-electron system (eV)
  ---------------------------------------------------
  alpha Z        PSCENC =        28.99437212
  Ewald energy   TEWEN  =       932.31351475
  -Hartree energ DENC   =     -1626.09805067
  -exchange      EXHF   =        27.39656734
  -V(xc)+E(xc)   XCENC  =       -49.84584013
  PAW double counting   =      1344.92462072    -1266.64281646
  entropy T*S    EENTRO =        -0.00000000
  eigenvalues    EBANDS =      -139.60270337
  atomic energy  EATOM  =       724.79368622
  ---------------------------------------------------
  free energy    TOTEN  =       -23.76664949 eV

  energy without entropy =      -23.76664949  energy(sigma->0) =      -23.76664949
  exchange ACFDT corr.  =        -0.00000000  see jH, gK, PRB 81, 115126


--------------------------------------------------------------------------------------------------------




--------------------------------------- Iteration      1(   8)  ---------------------------------------


    POTLOK:  cpu time      0.0199: real time      0.0200
    SETDIJ:  cpu time      0.0720: real time      0.0725
    TRIAL :  cpu time     85.9525: real time     86.6109
    CORREC:  cpu time      0.0006: real time      0.0006
    CHARGE:  cpu time      0.0244: real time      0.0247
    --------------------------------------------
      LOOP:  cpu time     86.0702: real time     86.7336

 eigenvalue-minimisations  :     0
 total energy-change (2. order) :-0.1295412E+00  (-0.1766535E+00)
 number of electron      18.0000002 magnetization       0.0000126     -0.0000142      0.0000098
 augmentation part       -1.0914061 magnetization       0.0001198      0.0006765     -0.0005280

 Free energy of the ion-electron system (eV)
  ---------------------------------------------------
  alpha Z        PSCENC =        28.99437212
  Ewald energy   TEWEN  =       932.31351475
  -Hartree energ DENC   =     -1631.61303434
  -exchange      EXHF   =        27.43457840
  -V(xc)+E(xc)   XCENC  =       -49.79260566
  PAW double counting   =      1355.73254376    -1277.57435877
  entropy T*S    EENTRO =        -0.00000000
  eigenvalues    EBANDS =      -134.18488721
  atomic energy  EATOM  =       724.79368622
  ---------------------------------------------------
  free energy    TOTEN  =       -23.89619074 eV

  energy without entropy =      -23.89619074  energy(sigma->0) =      -23.89619074
  exchange ACFDT corr.  =        -0.00000000  see jH, gK, PRB 81, 115126


--------------------------------------------------------------------------------------------------------




--------------------------------------- Iteration      1(   9)  ---------------------------------------


    POTLOK:  cpu time      0.0200: real time      0.0201
    SETDIJ:  cpu time      0.0717: real time      0.0720
    TRIAL :  cpu time     86.2115: real time     86.8098
    CORREC:  cpu time      0.0006: real time      0.0006
    CHARGE:  cpu time      0.0241: real time      0.0244
    --------------------------------------------
      LOOP:  cpu time     86.3287: real time     86.9308

 eigenvalue-minimisations  :     0
 total energy-change (2. order) :-0.3804699E-01  (-0.3805152E-01)
 number of electron      18.0000002 magnetization       0.0000126     -0.0000095      0.0000004
 augmentation part       -1.0944174 magnetization       0.0000855      0.0005758     -0.0004647

 Free energy of the ion-electron system (eV)
  ---------------------------------------------------
  alpha Z        PSCENC =        28.99437212
  Ewald energy   TEWEN  =       932.31351475
  -Hartree energ DENC   =     -1643.56410037
  -exchange      EXHF   =        27.39329912
  -V(xc)+E(xc)   XCENC  =       -49.83479548
  PAW double counting   =      1358.09201115    -1280.04463908
  entropy T*S    EENTRO =        -0.00000000
  eigenvalues    EBANDS =      -122.07758615
  atomic energy  EATOM  =       724.79368622
  ---------------------------------------------------
  free energy    TOTEN  =       -23.93423772 eV

  energy without entropy =      -23.93423772  energy(sigma->0) =      -23.93423772
  exchange ACFDT corr.  =        -0.00000000  see jH, gK, PRB 81, 115126


--------------------------------------------------------------------------------------------------------




--------------------------------------- Iteration      1(  10)  ---------------------------------------


    POTLOK:  cpu time      0.0199: real time      0.0201
    SETDIJ:  cpu time      0.0721: real time      0.0723
    TRIAL :  cpu time     86.2552: real time     86.8046
    CORREC:  cpu time      0.0006: real time      0.0008
    CHARGE:  cpu time      0.0242: real time      0.0243
    --------------------------------------------
      LOOP:  cpu time     86.3727: real time     86.9265

 eigenvalue-minimisations  :     0
 total energy-change (2. order) :-0.2433411E-01  (-0.2268883E-01)
 number of electron      18.0000002 magnetization       0.0000092     -0.0000055     -0.0000020
 augmentation part       -1.1056879 magnetization       0.0000774      0.0004759     -0.0004153

 Free energy of the ion-electron system (eV)
  ---------------------------------------------------
  alpha Z        PSCENC =        28.99437212
  Ewald energy   TEWEN  =       932.31351475
  -Hartree energ DENC   =     -1640.48043230
  -exchange      EXHF   =        27.39586650
  -V(xc)+E(xc)   XCENC  =       -49.83893905
  PAW double counting   =      1358.92740592    -1280.87629787
  entropy T*S    EENTRO =        -0.00000000
  eigenvalues    EBANDS =      -125.18774811
  atomic energy  EATOM  =       724.79368622
  ---------------------------------------------------
  free energy    TOTEN  =       -23.95857183 eV

  energy without entropy =      -23.95857183  energy(sigma->0) =      -23.95857183
  exchange ACFDT corr.  =        -0.00000000  see jH, gK, PRB 81, 115126


--------------------------------------------------------------------------------------------------------




--------------------------------------- Iteration      1(  11)  ---------------------------------------


    POTLOK:  cpu time      0.0199: real time      0.0200
    SETDIJ:  cpu time      0.0723: real time      0.0725
    TRIAL :  cpu time     86.1816: real time     86.7425
    CORREC:  cpu time      0.0006: real time      0.0006
    CHARGE:  cpu time      0.0241: real time      0.0243
    --------------------------------------------
      LOOP:  cpu time     86.2990: real time     86.8643

 eigenvalue-minimisations  :     0
 total energy-change (2. order) :-0.3866599E-02  (-0.6509872E-02)
 number of electron      18.0000002 magnetization       0.0000063     -0.0000032     -0.0000022
 augmentation part       -1.1014092 magnetization       0.0000683      0.0004033     -0.0003638

 Free energy of the ion-electron system (eV)
  ---------------------------------------------------
  alpha Z        PSCENC =        28.99437212
  Ewald energy   TEWEN  =       932.31351475
  -Hartree energ DENC   =     -1635.87817398
  -exchange      EXHF   =        27.41163686
  -V(xc)+E(xc)   XCENC  =       -49.82831984
  PAW double counting   =      1360.86406728    -1282.78346548
  entropy T*S    EENTRO =        -0.00000000
  eigenvalues    EBANDS =      -129.84975636
  atomic energy  EATOM  =       724.79368622
  ---------------------------------------------------
  free energy    TOTEN  =       -23.96243843 eV

  energy without entropy =      -23.96243843  energy(sigma->0) =      -23.96243843
  exchange ACFDT corr.  =        -0.00000000  see jH, gK, PRB 81, 115126


--------------------------------------------------------------------------------------------------------




--------------------------------------- Iteration      1(  12)  ---------------------------------------


    POTLOK:  cpu time      0.0198: real time      0.0199
    SETDIJ:  cpu time      0.0715: real time      0.0718
    TRIAL :  cpu time     85.9723: real time     86.6120
    CORREC:  cpu time      0.0006: real time      0.0006
    CHARGE:  cpu time      0.0247: real time      0.0250
    --------------------------------------------
      LOOP:  cpu time     86.0896: real time     86.7337

 eigenvalue-minimisations  :     0
 total energy-change (2. order) :-0.4145458E-02  (-0.3246729E-02)
 number of electron      18.0000002 magnetization       0.0000042     -0.0000023     -0.0000022
 augmentation part       -1.0965197 magnetization       0.0000598      0.0003511     -0.0003165

 Free energy of the ion-electron system (eV)
  ---------------------------------------------------
  alpha Z        PSCENC =        28.99437212
  Ewald energy   TEWEN  =       932.31351475
  -Hartree energ DENC   =     -1637.35085659
  -exchange      EXHF   =        27.41317124
  -V(xc)+E(xc)   XCENC  =       -49.83004764
  PAW double counting   =      1363.33810063    -1285.25424870
  entropy T*S    EENTRO =        -0.00000000
  eigenvalues    EBANDS =      -128.38427592
  atomic energy  EATOM  =       724.79368622
  ---------------------------------------------------
  free energy    TOTEN  =       -23.96658389 eV

  energy without entropy =      -23.96658389  energy(sigma->0) =      -23.96658389
  exchange ACFDT corr.  =        -0.00000000  see jH, gK, PRB 81, 115126


--------------------------------------------------------------------------------------------------------




--------------------------------------- Iteration      1(  13)  ---------------------------------------


    POTLOK:  cpu time      0.0197: real time      0.0198
    SETDIJ:  cpu time      0.0719: real time      0.0722
    TRIAL :  cpu time     86.0170: real time     86.6847
    CORREC:  cpu time      0.0006: real time      0.0006
    CHARGE:  cpu time      0.0240: real time      0.0244
    --------------------------------------------
      LOOP:  cpu time     86.1338: real time     86.8074

 eigenvalue-minimisations  :     0
 total energy-change (2. order) :-0.6897146E-03  (-0.9299073E-03)
 number of electron      18.0000002 magnetization       0.0000030     -0.0000017     -0.0000020
 augmentation part       -1.0984184 magnetization       0.0000552      0.0003084     -0.0002767

 Free energy of the ion-electron system (eV)
  ---------------------------------------------------
  alpha Z        PSCENC =        28.99437212
  Ewald energy   TEWEN  =       932.31351475
  -Hartree energ DENC   =     -1639.22293956
  -exchange      EXHF   =        27.41093606
  -V(xc)+E(xc)   XCENC  =       -49.83277778
  PAW double counting   =      1364.88060145    -1286.80020339
  entropy T*S    EENTRO =        -0.00000000
  eigenvalues    EBANDS =      -126.50446347
  atomic energy  EATOM  =       724.79368622
  ---------------------------------------------------
  free energy    TOTEN  =       -23.96727360 eV

  energy without entropy =      -23.96727360  energy(sigma->0) =      -23.96727360
  exchange ACFDT corr.  =        -0.00000000  see jH, gK, PRB 81, 115126


--------------------------------------------------------------------------------------------------------




--------------------------------------- Iteration      1(  14)  ---------------------------------------


    POTLOK:  cpu time      0.0198: real time      0.0199
    SETDIJ:  cpu time      0.0720: real time      0.0723
    TRIAL :  cpu time     85.9700: real time     86.6252
    CORREC:  cpu time      0.0006: real time      0.0007
    CHARGE:  cpu time      0.0243: real time      0.0244
    --------------------------------------------
      LOOP:  cpu time     86.0875: real time     86.7477

 eigenvalue-minimisations  :     0
 total energy-change (2. order) :-0.5978278E-03  (-0.5105338E-03)
 number of electron      18.0000002 magnetization       0.0000021     -0.0000012     -0.0000017
 augmentation part       -1.1006077 magnetization       0.0000516      0.0002723     -0.0002433

 Free energy of the ion-electron system (eV)
  ---------------------------------------------------
  alpha Z        PSCENC =        28.99437212
  Ewald energy   TEWEN  =       932.31351475
  -Hartree energ DENC   =     -1638.87491361
  -exchange      EXHF   =        27.41296661
  -V(xc)+E(xc)   XCENC  =       -49.82967068
  PAW double counting   =      1365.23247246    -1287.15022978
  entropy T*S    EENTRO =        -0.00000000
  eigenvalues    EBANDS =      -126.86006953
  atomic energy  EATOM  =       724.79368622
  ---------------------------------------------------
  free energy    TOTEN  =       -23.96787143 eV

  energy without entropy =      -23.96787143  energy(sigma->0) =      -23.96787143
  exchange ACFDT corr.  =        -0.00000000  see jH, gK, PRB 81, 115126


--------------------------------------------------------------------------------------------------------




--------------------------------------- Iteration      1(  15)  ---------------------------------------


    POTLOK:  cpu time      0.0197: real time      0.0198
    SETDIJ:  cpu time      0.0713: real time      0.0716
    TRIAL :  cpu time     85.9854: real time     86.6368
    CORREC:  cpu time      0.0006: real time      0.0006
    CHARGE:  cpu time      0.0242: real time      0.0245
    --------------------------------------------
      LOOP:  cpu time     86.1019: real time     86.7584

 eigenvalue-minimisations  :     0
 total energy-change (2. order) :-0.1127173E-03  (-0.1569680E-03)
 number of electron      18.0000002 magnetization       0.0000015     -0.0000007     -0.0000014
 augmentation part       -1.1000110 magnetization       0.0000470      0.0002389     -0.0002114

 Free energy of the ion-electron system (eV)
  ---------------------------------------------------
  alpha Z        PSCENC =        28.99437212
  Ewald energy   TEWEN  =       932.31351475
  -Hartree energ DENC   =     -1638.19029615
  -exchange      EXHF   =        27.41382071
  -V(xc)+E(xc)   XCENC  =       -49.82763961
  PAW double counting   =      1364.93510283    -1286.85135886
  entropy T*S    EENTRO =        -0.00000000
  eigenvalues    EBANDS =      -127.54918616
  atomic energy  EATOM  =       724.79368622
  ---------------------------------------------------
  free energy    TOTEN  =       -23.96798415 eV

  energy without entropy =      -23.96798415  energy(sigma->0) =      -23.96798415
  exchange ACFDT corr.  =        -0.00000000  see jH, gK, PRB 81, 115126


--------------------------------------------------------------------------------------------------------




--------------------------------------- Iteration      1(  16)  ---------------------------------------


    POTLOK:  cpu time      0.0198: real time      0.0199
    SETDIJ:  cpu time      0.0717: real time      0.0720
    TRIAL :  cpu time     85.9936: real time     86.6003
    CORREC:  cpu time      0.0006: real time      0.0007
    CHARGE:  cpu time      0.0243: real time      0.0244
    --------------------------------------------
      LOOP:  cpu time     86.1109: real time     86.7226

 eigenvalue-minimisations  :     0
 total energy-change (2. order) :-0.9697858E-04  (-0.6615888E-04)
 number of electron      18.0000002 magnetization       0.0000009     -0.0000003     -0.0000012
 augmentation part       -1.0992973 magnetization       0.0000419      0.0002091     -0.0001842

 Free energy of the ion-electron system (eV)
  ---------------------------------------------------
  alpha Z        PSCENC =        28.99437212
  Ewald energy   TEWEN  =       932.31351475
  -Hartree energ DENC   =     -1638.33201209
  -exchange      EXHF   =        27.41234563
  -V(xc)+E(xc)   XCENC  =       -49.82881845
  PAW double counting   =      1364.50836754    -1286.42657614
  entropy T*S    EENTRO =        -0.00000000
  eigenvalues    EBANDS =      -127.40296071
  atomic energy  EATOM  =       724.79368622
  ---------------------------------------------------
  free energy    TOTEN  =       -23.96808113 eV

  energy without entropy =      -23.96808113  energy(sigma->0) =      -23.96808113
  exchange ACFDT corr.  =        -0.00000000  see jH, gK, PRB 81, 115126


--------------------------------------------------------------------------------------------------------




--------------------------------------- Iteration      1(  17)  ---------------------------------------


    POTLOK:  cpu time      0.0197: real time      0.0198
    SETDIJ:  cpu time      0.0719: real time      0.0724
    TRIAL :  cpu time     86.1253: real time     86.6679
    CORREC:  cpu time      0.0006: real time      0.0006
    CHARGE:  cpu time      0.0240: real time      0.0243
    --------------------------------------------
      LOOP:  cpu time     86.2421: real time     86.7904

 eigenvalue-minimisations  :     0
 total energy-change (2. order) :-0.1536364E-04  (-0.2211923E-04)
 number of electron      18.0000002 magnetization       0.0000006     -0.0000001     -0.0000009
 augmentation part       -1.0995601 magnetization       0.0000369      0.0001832     -0.0001619

 Free energy of the ion-electron system (eV)
  ---------------------------------------------------
  alpha Z        PSCENC =        28.99437212
  Ewald energy   TEWEN  =       932.31351475
  -Hartree energ DENC   =     -1638.56152246
  -exchange      EXHF   =        27.41162614
  -V(xc)+E(xc)   XCENC  =       -49.82973464
  PAW double counting   =      1364.21219230    -1286.13188142
  entropy T*S    EENTRO =        -0.00000000
  eigenvalues    EBANDS =      -127.17034950
  atomic energy  EATOM  =       724.79368622
  ---------------------------------------------------
  free energy    TOTEN  =       -23.96809649 eV

  energy without entropy =      -23.96809649  energy(sigma->0) =      -23.96809649
  exchange ACFDT corr.  =        -0.00000000  see jH, gK, PRB 81, 115126


--------------------------------------------------------------------------------------------------------




--------------------------------------- Iteration      1(  18)  ---------------------------------------


    POTLOK:  cpu time      0.0192: real time      0.0193
    SETDIJ:  cpu time      0.0716: real time      0.0719
    TRIAL :  cpu time     86.2022: real time     86.7355
    CORREC:  cpu time      0.0006: real time      0.0007
    CHARGE:  cpu time      0.0242: real time      0.0243
    --------------------------------------------
      LOOP:  cpu time     86.3296: real time     86.8676

 eigenvalue-minimisations  :     0
 total energy-change (2. order) :-0.1471482E-04  (-0.1132202E-04)
 number of electron      18.0000002 magnetization       0.0000004      0.0000001     -0.0000008
 augmentation part       -1.0998663 magnetization       0.0000326      0.0001606     -0.0001423

 Free energy of the ion-electron system (eV)
  ---------------------------------------------------
  alpha Z        PSCENC =        28.99437212
  Ewald energy   TEWEN  =       932.31351475
  -Hartree energ DENC   =     -1638.51488444
  -exchange      EXHF   =        27.41231494
  -V(xc)+E(xc)   XCENC  =       -49.82928818
  PAW double counting   =      1364.06554680    -1285.98511467
  entropy T*S    EENTRO =        -0.00000000
  eigenvalues    EBANDS =      -127.21825875
  atomic energy  EATOM  =       724.79368622
  ---------------------------------------------------
  free energy    TOTEN  =       -23.96811121 eV

  energy without entropy =      -23.96811121  energy(sigma->0) =      -23.96811121
  exchange ACFDT corr.  =        -0.00000000  see jH, gK, PRB 81, 115126


--------------------------------------------------------------------------------------------------------




--------------------------------------- Iteration      1(  19)  ---------------------------------------


    POTLOK:  cpu time      0.0197: real time      0.0199
    SETDIJ:  cpu time      0.0719: real time      0.0722
    TRIAL :  cpu time     86.1386: real time     86.6745
    CORREC:  cpu time      0.0007: real time      0.0007
    CHARGE:  cpu time      0.0241: real time      0.0244
    --------------------------------------------
      LOOP:  cpu time     86.2555: real time     86.7973

 eigenvalue-minimisations  :     0
 total energy-change (2. order) :-0.3109563E-05  (-0.3044427E-05)
 number of electron      18.0000002 magnetization       0.0000003      0.0000002     -0.0000006
 augmentation part       -1.0997601 magnetization       0.0000288      0.0001407     -0.0001243

 Free energy of the ion-electron system (eV)
  ---------------------------------------------------
  alpha Z        PSCENC =        28.99437212
  Ewald energy   TEWEN  =       932.31351475
  -Hartree energ DENC   =     -1638.42889949
  -exchange      EXHF   =        27.41288868
  -V(xc)+E(xc)   XCENC  =       -49.82884362
  PAW double counting   =      1364.00975443    -1285.92889159
  entropy T*S    EENTRO =        -0.00000000
  eigenvalues    EBANDS =      -127.30569583
  atomic energy  EATOM  =       724.79368622
  ---------------------------------------------------
  free energy    TOTEN  =       -23.96811431 eV

  energy without entropy =      -23.96811431  energy(sigma->0) =      -23.96811431
  exchange ACFDT corr.  =        -0.00000000  see jH, gK, PRB 81, 115126


--------------------------------------------------------------------------------------------------------




--------------------------------------- Iteration      1(  20)  ---------------------------------------


    POTLOK:  cpu time      0.0199: real time      0.0200
    SETDIJ:  cpu time      0.0722: real time      0.0725
    TRIAL :  cpu time     86.0827: real time     86.6610
    CORREC:  cpu time      0.0006: real time      0.0008
    CHARGE:  cpu time      0.0244: real time      0.0245
    --------------------------------------------
      LOOP:  cpu time     86.2009: real time     86.7835

 eigenvalue-minimisations  :     0
 total energy-change (2. order) :-0.2068333E-05  (-0.1843061E-05)
 number of electron      18.0000002 magnetization       0.0000002      0.0000002     -0.0000006
 augmentation part       -1.0996028 magnetization       0.0000255      0.0001234     -0.0001084

 Free energy of the ion-electron system (eV)
  ---------------------------------------------------
  alpha Z        PSCENC =        28.99437212
  Ewald energy   TEWEN  =       932.31351475
  -Hartree energ DENC   =     -1638.44584866
  -exchange      EXHF   =        27.41280922
  -V(xc)+E(xc)   XCENC  =       -49.82896546
  PAW double counting   =      1364.00355460    -1285.92265524
  entropy T*S    EENTRO =        -0.00000000
  eigenvalues    EBANDS =      -127.28858394
  atomic energy  EATOM  =       724.79368622
  ---------------------------------------------------
  free energy    TOTEN  =       -23.96811638 eV

  energy without entropy =      -23.96811638  energy(sigma->0) =      -23.96811638
  exchange ACFDT corr.  =        -0.00000000  see jH, gK, PRB 81, 115126


--------------------------------------------------------------------------------------------------------




--------------------------------------- Iteration      1(  21)  ---------------------------------------


    POTLOK:  cpu time      0.0199: real time      0.0200
    SETDIJ:  cpu time      0.0717: real time      0.0719
    TRIAL :  cpu time     85.9143: real time     86.5145
[...]
 -0.000  -0.000  -0.000   3.968  -0.000   0.000   0.000   0.000  -5.200   0.000   0.000  -0.000  -0.000  -0.000  -0.000   0.000
 -0.000   0.000  -0.000  -0.000   2.341   0.000  -0.000   0.000   0.000  -2.931   0.000  -0.000   0.330  -0.000  -0.000  -0.045
 -2.931   0.000   0.000   0.000   0.000   4.407  -0.000  -0.000  -0.000  -0.000   0.000  -0.000   0.000   0.000  -0.401  -0.000
  0.000  -5.200   0.000   0.000  -0.000  -0.000   7.245  -0.000  -0.000   0.000  -0.000   0.000  -0.000   0.000   0.000   0.000
  0.000   0.000  -2.053   0.000   0.000  -0.000  -0.000   3.375  -0.000  -0.000   0.358  -0.050   0.000   0.000   0.000  -0.000
  0.000   0.000   0.000  -5.200   0.000  -0.000  -0.000  -0.000   7.244  -0.000  -0.000   0.000   0.000  -0.000   0.000  -0.000
  0.000  -0.000   0.000   0.000  -2.931  -0.000   0.000  -0.000  -0.000   4.406  -0.000   0.000  -0.401   0.000   0.000   0.050
 -0.000   0.000  -0.187   0.000   0.000   0.000  -0.000   0.358  -0.000  -0.000   2.100  -0.252   0.000  -0.000  -0.000  -0.000
  0.000  -0.000   0.030  -0.000  -0.000  -0.000   0.000  -0.050   0.000   0.000  -0.252   0.031  -0.000   0.000   0.000   0.000
 -0.000   0.000  -0.000  -0.000   0.330   0.000  -0.000   0.000   0.000  -0.401   0.000  -0.000   0.305  -0.000  -0.000  -0.037
 -0.000  -0.000  -0.000  -0.000  -0.000   0.000   0.000   0.000  -0.000   0.000  -0.000   0.000  -0.000   0.381  -0.000   0.000
  0.330  -0.000  -0.000  -0.000  -0.000  -0.401   0.000   0.000   0.000   0.000  -0.000   0.000  -0.000  -0.000   0.305   0.000
  0.000  -0.000   0.000   0.000  -0.045  -0.000   0.000  -0.000  -0.000   0.050  -0.000   0.000  -0.037   0.000   0.000   0.005
  0.000   0.000   0.000   0.000   0.000  -0.000  -0.000  -0.000  -0.000  -0.000   0.000  -0.000   0.000  -0.045   0.000  -0.000
 -0.045   0.000   0.000   0.000   0.000   0.050  -0.000   0.000  -0.000  -0.000   0.000  -0.000   0.000   0.000  -0.037  -0.000
 total augmentation occupancy for first ion, spin component:           2
 -0.000   0.000   0.000  -0.000   0.000   0.000  -0.000  -0.000   0.000  -0.000  -0.000   0.000   0.000   0.000  -0.000   0.000
  0.000  -0.000  -0.000   0.000  -0.000  -0.000   0.000   0.000  -0.000   0.000  -0.000   0.000  -0.000  -0.000  -0.000   0.000
  0.000  -0.000  -0.000   0.000   0.000  -0.000   0.000  -0.000  -0.000  -0.000  -0.000   0.000   0.000  -0.000   0.000  -0.000
 -0.000   0.000   0.000  -0.000  -0.000   0.000  -0.000  -0.000   0.000   0.000  -0.000  -0.000  -0.000   0.000  -0.000  -0.000
  0.000  -0.000   0.000  -0.000  -0.000  -0.000   0.000  -0.000   0.000   0.000   0.000  -0.000  -0.000   0.000   0.000   0.000
  0.000  -0.000  -0.000   0.000  -0.000  -0.000   0.000   0.000  -0.000   0.000   0.000  -0.000  -0.000  -0.000   0.000   0.000
 -0.000   0.000   0.000  -0.000   0.000   0.000  -0.000  -0.000   0.000  -0.000   0.000  -0.000   0.000   0.000   0.000  -0.000
 -0.000   0.000  -0.000  -0.000  -0.000   0.000  -0.000   0.000   0.000   0.000   0.000  -0.000  -0.000   0.000  -0.000   0.000
  0.000  -0.000  -0.000   0.000   0.000  -0.000   0.000   0.000  -0.000  -0.000   0.000   0.000   0.000  -0.000   0.000   0.000
 -0.000   0.000  -0.000   0.000   0.000   0.000  -0.000   0.000  -0.000  -0.000  -0.000   0.000   0.000  -0.000  -0.000  -0.000
 -0.000  -0.000  -0.000  -0.000   0.000   0.000   0.000   0.000   0.000  -0.000   0.000  -0.000  -0.000  -0.000  -0.000   0.000
  0.000   0.000   0.000  -0.000  -0.000  -0.000  -0.000  -0.000   0.000   0.000  -0.000   0.000   0.000   0.000   0.000  -0.000
  0.000  -0.000   0.000  -0.000  -0.000  -0.000   0.000  -0.000   0.000   0.000  -0.000   0.000  -0.000  -0.000  -0.000   0.000
  0.000  -0.000  -0.000   0.000   0.000  -0.000   0.000   0.000  -0.000  -0.000  -0.000   0.000  -0.000   0.000   0.000  -0.000
 -0.000  -0.000   0.000  -0.000   0.000   0.000   0.000  -0.000   0.000  -0.000  -0.000   0.000  -0.000   0.000  -0.000   0.000
  0.000   0.000  -0.000  -0.000   0.000   0.000  -0.000   0.000   0.000  -0.000   0.000  -0.000   0.000  -0.000   0.000  -0.000
 -0.000   0.000   0.000  -0.000  -0.000   0.000  -0.000  -0.000   0.000   0.000  -0.000   0.000  -0.000   0.000  -0.000   0.000
  0.000   0.000  -0.000   0.000  -0.000  -0.000  -0.000   0.000  -0.000   0.000   0.000  -0.000  -0.000  -0.000   0.000   0.000
 total augmentation occupancy for first ion, spin component:           3
 -0.000   0.000  -0.000   0.000  -0.000   0.000  -0.000   0.000  -0.000   0.000   0.000  -0.000  -0.000   0.000  -0.000   0.000
  0.000  -0.000  -0.000  -0.000   0.000  -0.000   0.000   0.000   0.000  -0.000   0.000  -0.000   0.000  -0.000   0.000  -0.000
 -0.000  -0.000  -0.000   0.000   0.000   0.000   0.000   0.000  -0.000  -0.000   0.000  -0.000  -0.000   0.000  -0.000   0.000
  0.000  -0.000   0.000  -0.000   0.000  -0.000   0.000  -0.000   0.000  -0.000  -0.000   0.000   0.000  -0.000   0.000  -0.000
 -0.000   0.000   0.000   0.000  -0.000   0.000  -0.000  -0.000  -0.000   0.000  -0.000  -0.000  -0.000  -0.000  -0.000   0.000
  0.000  -0.000   0.000  -0.000   0.000  -0.000   0.000  -0.000   0.000  -0.000  -0.000   0.000   0.000  -0.000   0.000  -0.000
 -0.000   0.000   0.000   0.000  -0.000   0.000  -0.000  -0.000  -0.000   0.000  -0.000   0.000  -0.000   0.000  -0.000   0.000
  0.000   0.000   0.000  -0.000  -0.000  -0.000  -0.000  -0.000   0.000   0.000   0.000  -0.000   0.000  -0.000   0.000   0.000
 -0.000   0.000  -0.000   0.000  -0.000   0.000  -0.000   0.000  -0.000   0.000   0.000  -0.000  -0.000   0.000  -0.000   0.000
  0.000  -0.000  -0.000  -0.000   0.000  -0.000   0.000   0.000   0.000  -0.000   0.000   0.000   0.000   0.000   0.000  -0.000
  0.000   0.000   0.000  -0.000  -0.000  -0.000  -0.000   0.000   0.000   0.000   0.000  -0.000   0.000   0.000  -0.000   0.000
 -0.000  -0.000  -0.000   0.000  -0.000   0.000   0.000  -0.000  -0.000   0.000  -0.000   0.000  -0.000  -0.000   0.000   0.000
 -0.000   0.000  -0.000   0.000  -0.000   0.000  -0.000   0.000  -0.000   0.000   0.000  -0.000  -0.000   0.000   0.000   0.000
  0.000  -0.000   0.000  -0.000  -0.000  -0.000   0.000  -0.000   0.000   0.000   0.000  -0.000   0.000   0.000   0.000   0.000
 -0.000   0.000  -0.000   0.000  -0.000   0.000  -0.000   0.000  -0.000   0.000  -0.000   0.000   0.000   0.000  -0.000   0.000
  0.000  -0.000   0.000  -0.000   0.000  -0.000   0.000   0.000   0.000  -0.000   0.000   0.000   0.000   0.000   0.000  -0.000
 -0.000   0.000  -0.000   0.000  -0.000   0.000  -0.000   0.000  -0.000   0.000  -0.000   0.000  -0.000   0.000  -0.000   0.000
  0.000  -0.000   0.000  -0.000   0.000  -0.000   0.000  -0.000   0.000  -0.000  -0.000  -0.000   0.000  -0.000   0.000  -0.000
 total augmentation occupancy for first ion, spin component:           4
  0.000   0.000  -0.000   0.000   0.000  -0.000  -0.000   0.000  -0.000  -0.000   0.000   0.000   0.000   0.000   0.000   0.000
  0.000   0.000   0.000   0.000   0.000  -0.000  -0.000  -0.000  -0.000  -0.000  -0.000  -0.000   0.000   0.000   0.000  -0.000
 -0.000   0.000   0.000   0.000  -0.000   0.000  -0.000  -0.000  -0.000  -0.000  -0.000   0.000   0.000   0.000   0.000  -0.000
  0.000   0.000   0.000   0.000   0.000  -0.000  -0.000  -0.000  -0.000  -0.000  -0.000   0.000   0.000   0.000   0.000  -0.000
  0.000   0.000  -0.000   0.000   0.000  -0.000  -0.000  -0.000  -0.000  -0.000  -0.000   0.000   0.000  -0.000   0.000  -0.000
 -0.000  -0.000   0.000  -0.000  -0.000   0.000   0.000  -0.000   0.000   0.000  -0.000  -0.000  -0.000  -0.000  -0.000   0.000
 -0.000  -0.000  -0.000  -0.000  -0.000   0.000   0.000   0.000   0.000   0.000   0.000   0.000  -0.000  -0.000  -0.000   0.000
  0.000  -0.000  -0.000  -0.000  -0.000  -0.000   0.000   0.000   0.000   0.000   0.000   0.000  -0.000  -0.000  -0.000   0.000
 -0.000  -0.000  -0.000  -0.000  -0.000   0.000   0.000   0.000   0.000   0.000   0.000  -0.000  -0.000  -0.000  -0.000   0.000
 -0.000  -0.000  -0.000  -0.000  -0.000   0.000   0.000   0.000   0.000   0.000   0.000  -0.000  -0.000   0.000  -0.000   0.000
  0.000  -0.000  -0.000  -0.000  -0.000  -0.000   0.000   0.000   0.000   0.000  -0.000   0.000  -0.000   0.000   0.000   0.000
  0.000  -0.000   0.000   0.000   0.000  -0.000   0.000   0.000  -0.000  -0.000   0.000  -0.000   0.000  -0.000  -0.000  -0.000
  0.000   0.000   0.000   0.000   0.000  -0.000  -0.000  -0.000  -0.000  -0.000  -0.000   0.000   0.000   0.000  -0.000  -0.000
  0.000   0.000   0.000   0.000  -0.000  -0.000  -0.000  -0.000  -0.000   0.000   0.000  -0.000   0.000  -0.000  -0.000  -0.000
  0.000   0.000   0.000   0.000   0.000  -0.000  -0.000  -0.000  -0.000  -0.000   0.000  -0.000  -0.000  -0.000   0.000   0.000
  0.000  -0.000  -0.000  -0.000  -0.000   0.000   0.000   0.000   0.000   0.000   0.000  -0.000  -0.000  -0.000   0.000   0.000
 -0.000  -0.000  -0.000  -0.000  -0.000   0.000   0.000   0.000   0.000   0.000   0.000  -0.000  -0.000  -0.000  -0.000   0.000
 -0.000  -0.000  -0.000  -0.000   0.000   0.000   0.000   0.000   0.000   0.000  -0.000   0.000   0.000  -0.000  -0.000  -0.000


------------------------ aborting loop because EDIFF is reached ----------------------------------------





 total charge

# of ion       s       p       d       tot
------------------------------------------
    1        0.411   0.532   4.335   5.278
    2        1.490   2.364   0.060   3.914
    3        1.490   2.364   0.060   3.914
--------------------------------------------------
tot          3.390   5.261   4.455  13.106



 magnetization (x)

# of ion       s       p       d       tot
------------------------------------------
    1        0.000   0.000   0.000   0.000
    2       -0.000  -0.000   0.000  -0.000
    3        0.000   0.000  -0.000   0.000
--------------------------------------------------
tot         -0.000  -0.000   0.000   0.000



 magnetization (y)

# of ion       s       p       d       tot
------------------------------------------
    1        0.000   0.000   0.000   0.000
    2       -0.000  -0.000   0.000  -0.000
    3       -0.000  -0.000   0.000  -0.000
--------------------------------------------------
tot         -0.000  -0.000   0.000   0.000



 magnetization (z)

# of ion       s       p       d       tot
------------------------------------------
    1       -0.000  -0.000  -0.000  -0.000
    2        0.000   0.000  -0.000   0.000
    3        0.000   0.000  -0.000   0.000
--------------------------------------------------
tot          0.000   0.000  -0.000  -0.000
 
    FORLOC:  cpu time      0.0003: real time      0.0003
    FORHF :  cpu time     60.1619: real time     60.4995
    FORNL :  cpu time      0.0330: real time      0.0332
    FORCOR:  cpu time      0.0912: real time      0.0917
    OFIELD:  cpu time      0.0001: real time      0.0001

 VOLUME and BASIS-vectors are now :
 -----------------------------------------------------------------------------
  energy-cutoff  :      224.58
  volume of cell :      143.19
      direct lattice vectors                 reciprocal lattice vectors
     3.320000000  0.000000000  0.000000000     0.301204819  0.173900683  0.000000000
    -1.660000000  2.875204341  0.000000000     0.000000000  0.347801367  0.000000000
     0.000000000  0.000000000 15.000000000     0.000000000  0.000000000  0.066666667

  length of vectors
     3.320000000  3.320000000 15.000000000     0.347801367  0.347801367  0.066666667


 FORCES acting on ions:
    Electron-Ion                     Ewald-Force                    Non-Local-Force
 -----------------------------------------------------------------------------------------------
   -.742E-04 0.641E-03 0.298E-04   0.840E-04 -.764E-03 -.105E-04   -.220E-04 -.127E-03 -.486E-04
   -.902E-03 -.883E-03 0.430E+03   0.106E-02 0.102E-02 -.432E+03   0.176E-03 0.165E-03 0.263E+01
   0.100E-02 0.215E-03 -.430E+03   -.114E-02 -.255E-03 0.432E+03   -.205E-03 -.503E-04 -.263E+01
 -----------------------------------------------------------------------------------------------
   0.190E-04 -.149E-04 -.346E-04   -.962E-14 -.634E-15 0.000E+00   -.509E-04 -.122E-04 -.266E-04
 
 
 POSITION                                       TOTAL-FORCE (eV/Angst)
 -----------------------------------------------------------------------------------
      1.63433      0.94359      7.50683         0.000010     -0.000221     -0.000001
      1.63428      2.86035      5.83830         0.000343      0.000310      0.546016
      1.63439      2.86041      9.17536        -0.000353     -0.000089     -0.546015
 -----------------------------------------------------------------------------------
    total drift:                               -0.000053     -0.000038     -0.000080


--------------------------------------------------------------------------------------------------------



  FREE ENERGIE OF THE ION-ELECTRON SYSTEM (eV)
  ---------------------------------------------------
  free  energy   TOTEN  =       -23.96811699 eV

  energy  without entropy=      -23.96811699  energy(sigma->0) =      -23.96811699
 


--------------------------------------------------------------------------------------------------------


    POTLOK:  cpu time      0.0923: real time      0.1013


--------------------------------------------------------------------------------------------------------


 stress matrix after NEB project (eV)
      0.00000      0.00000      0.00000
      0.00000      0.00000      0.00000
      0.00000      0.00000      0.00000
  FORCES: max atom, RMS     0.546017    0.445820
  FORCE total and by dimension    0.772183    0.546016
  Stress total and by dimension    0.000000    0.000000
 writing wavefunctions
     LOOP+:  cpu time   1616.7652: real time   1628.0813
    4ORBIT:  cpu time      0.0000: real time      0.0000

 Spin-Orbit-Coupling matrix elements

 Ion:    1  E_soc:     -0.0327701
 l=   1
     0.0000000    -0.0021229    -0.0018874
    -0.0021229     0.0000000    -0.0021229
    -0.0018874    -0.0021229     0.0000000
 l=   2
     0.0000000    -0.0005574     0.0000000    -0.0005574    -0.0034402
    -0.0005574     0.0000000    -0.0020430    -0.0004970    -0.0005574
     0.0000000    -0.0020430     0.0000000    -0.0020424     0.0000000
    -0.0005574    -0.0004970    -0.0020424     0.0000000    -0.0005570
    -0.0034402    -0.0005574     0.0000000    -0.0005570     0.0000000
 l=   3
     0.0000000     0.0000000     0.0000000     0.0000000     0.0000000     0.0000000     0.0000000
     0.0000000     0.0000000     0.0000000     0.0000000     0.0000000     0.0000000     0.0000000
     0.0000000     0.0000000     0.0000000     0.0000000     0.0000000     0.0000000     0.0000000
     0.0000000     0.0000000     0.0000000     0.0000000     0.0000000     0.0000000     0.0000000
     0.0000000     0.0000000     0.0000000     0.0000000     0.0000000     0.0000000     0.0000000
     0.0000000     0.0000000     0.0000000     0.0000000     0.0000000     0.0000000     0.0000000
     0.0000000     0.0000000     0.0000000     0.0000000     0.0000000     0.0000000     0.0000000

 Ion:    2  E_soc:     -0.0399187
 l=   1
     0.0000000    -0.0065345    -0.0068944
    -0.0065345     0.0000000    -0.0065344
    -0.0068944    -0.0065344     0.0000000
 l=   2
     0.0000000     0.0000007     0.0000000     0.0000007    -0.0000052
     0.0000007     0.0000000    -0.0000005     0.0000076     0.0000007
     0.0000000    -0.0000005     0.0000000    -0.0000005     0.0000000
     0.0000007     0.0000076    -0.0000005     0.0000000     0.0000007
    -0.0000052     0.0000007     0.0000000     0.0000007     0.0000000
 l=   3
     0.0000000     0.0000000     0.0000000     0.0000000     0.0000000     0.0000000     0.0000000
     0.0000000     0.0000000     0.0000000     0.0000000     0.0000000     0.0000000     0.0000000
     0.0000000     0.0000000     0.0000000     0.0000000     0.0000000     0.0000000     0.0000000
     0.0000000     0.0000000     0.0000000     0.0000000     0.0000000     0.0000000     0.0000000
     0.0000000     0.0000000     0.0000000     0.0000000     0.0000000     0.0000000     0.0000000
     0.0000000     0.0000000     0.0000000     0.0000000     0.0000000     0.0000000     0.0000000
     0.0000000     0.0000000     0.0000000     0.0000000     0.0000000     0.0000000     0.0000000

 Ion:    3  E_soc:     -0.0399183
 l=   1
     0.0000000    -0.0065345    -0.0068943
    -0.0065345     0.0000000    -0.0065343
    -0.0068943    -0.0065343     0.0000000
 l=   2
     0.0000000     0.0000007     0.0000000     0.0000007    -0.0000052
     0.0000007     0.0000000    -0.0000005     0.0000076     0.0000007
     0.0000000    -0.0000005     0.0000000    -0.0000005     0.0000000
     0.0000007     0.0000076    -0.0000005     0.0000000     0.0000007
    -0.0000052     0.0000007     0.0000000     0.0000007     0.0000000
 l=   3
     0.0000000     0.0000000     0.0000000     0.0000000     0.0000000     0.0000000     0.0000000
     0.0000000     0.0000000     0.0000000     0.0000000     0.0000000     0.0000000     0.0000000
     0.0000000     0.0000000     0.0000000     0.0000000     0.0000000     0.0000000     0.0000000
     0.0000000     0.0000000     0.0000000     0.0000000     0.0000000     0.0000000     0.0000000
     0.0000000     0.0000000     0.0000000     0.0000000     0.0000000     0.0000000     0.0000000
     0.0000000     0.0000000     0.0000000     0.0000000     0.0000000     0.0000000     0.0000000
     0.0000000     0.0000000     0.0000000     0.0000000     0.0000000     0.0000000     0.0000000



 total charge

# of ion       s       p       d       tot
------------------------------------------
    1        0.411   0.532   4.335   5.278
    2        1.490   2.364   0.060   3.914
    3        1.490   2.364   0.060   3.914
--------------------------------------------------
tot          3.390   5.261   4.455  13.106



 magnetization (x)

# of ion       s       p       d       tot
------------------------------------------
    1        0.000   0.000   0.000   0.000
    2       -0.000  -0.000   0.000  -0.000
    3        0.000   0.000  -0.000   0.000
--------------------------------------------------
tot         -0.000  -0.000   0.000   0.000



 magnetization (y)

# of ion       s       p       d       tot
------------------------------------------
    1        0.000   0.000   0.000   0.000
    2       -0.000  -0.000   0.000  -0.000
    3       -0.000  -0.000   0.000  -0.000
--------------------------------------------------
tot         -0.000  -0.000   0.000   0.000



 magnetization (z)

# of ion       s       p       d       tot
------------------------------------------
    1       -0.000  -0.000  -0.000  -0.000
    2        0.000   0.000  -0.000   0.000
    3        0.000   0.000  -0.000   0.000
--------------------------------------------------
tot          0.000   0.000  -0.000  -0.000
 

 total amount of memory used by VASP MPI-rank0    49675. kBytes
=======================================================================

   base      :      30000. kBytes
   nonl-proj :       4488. kBytes
   fftplans  :        600. kBytes
   grid      :       1720. kBytes
   one-center:         62. kBytes
   HF        :         64. kBytes
   nonlr-proj:        421. kBytes
   wavefun   :       6717. kBytes
   fock_wrk  :       5603. kBytes
 
  
  
 General timing and accounting informations for this job:
 ========================================================
  
                  Total CPU time used (sec):     1622.545
                            User time (sec):     1621.863
                          System time (sec):        0.682
                         Elapsed time (sec):     1634.689
  
                   Maximum memory used (kb):      421308.
                   Average memory used (kb):          N/A
  
                          Minor page faults:       146661
                          Major page faults:            5
                 Voluntary context switches:         2973
