nqpoint: 484    
npath: 4      
segment_nqpoint:
- 121
- 121
- 121
- 121
labels:
- [ "M", "$\\Gamma$" ]
- [ "$\\Gamma$", "K" ]
- [ "K", "K'" ]
- [ "K'", "$\\Gamma$" ]
reciprocal_lattice:
- [   0.30120482,   0.17390068,   0.00000000 ] # a*
- [   0.00000000,   0.34780137,   0.00000000 ] # b*
- [   0.00000000,   0.00000000,   0.06666667 ] # c*
natom: 3      
lattice:
- [     3.320000000000000,     0.000000000000000,     0.000000000000000 ] # a
- [    -1.660000000000000,     2.875204340564340,     0.000000000000000 ] # b
- [     0.000000000000000,     0.000000000000000,    15.000000000000000 ] # c
points:
- symbol: Mo # 1
  coordinates: [  0.656360472503062,  0.328183184520867,  0.500455147105625 ]
  mass: 95.960000
- symbol: Se # 2
  coordinates: [  0.989670353345120,  0.994833692708318,  0.389220100150981 ]
  mass: 78.960000
- symbol: Se # 3
  coordinates: [  0.989712767146362,  0.994854919268087,  0.611690486401364 ]
  mass: 78.960000

phonon:
- q-position: [    0.0000000,    0.5000000,    0.0000000 ]
  distance:    0.0000000
  band:
  - # 1
    frequency:    3.1721101702
    eigenvector:
    - # atom 1
      - [  0.53635217519152,  0.00000000000000 ]
      - [  0.00032916374268, -0.00000000000000 ]
      - [  0.00009493345688,  0.00000000000000 ]
    - # atom 2
      - [  0.29834837518636,  0.51681513016887 ]
      - [ -0.00007647782946, -0.00013247901672 ]
      - [  0.00015541783143,  0.00026922314134 ]
    - # atom 3
      - [  0.29842754197084,  0.51687265952768 ]
      - [ -0.00016464919989, -0.00028517029385 ]
      - [ -0.00007519783367, -0.00013024167952 ]
  - # 2
    frequency:    3.8031778749
    eigenvector:
    - # atom 1
      - [ -0.00012926848256,  0.00000000000000 ]
      - [  0.00013819756412, -0.00000000000000 ]
      - [  0.55966018391307,  0.00000000000002 ]
    - # atom 2
      - [ -0.00021620590922, -0.00037452352489 ]
      - [  0.24023794339787,  0.41615310930094 ]
      - [  0.16776621582138,  0.29061367809868 ]
    - # atom 3
      - [  0.00011360799562,  0.00019676758537 ]
      - [ -0.24025817235932, -0.41612406046881 ]
      - [  0.16763329579750,  0.29033870953076 ]
  - # 3
    frequency:    4.8180968283
    eigenvector:
    - # atom 1
      - [  0.00016542077170,  0.00000000000000 ]
      - [ -0.61063512252671,  0.00000000000031 ]
      - [  0.00015016951452,  0.00000000000000 ]
    - # atom 2
      - [  0.00010346933229,  0.00017923515220 ]
      - [  0.03069148837727,  0.05316544978952 ]
      - [ -0.27828555046577, -0.48206122422514 ]
    - # atom 3
      - [  0.00023037479080,  0.00039900617090 ]
      - [  0.03051299940212,  0.05284812201638 ]
      - [  0.27830880261238,  0.48202726204846 ]
  - # 4
    frequency:    5.2724584025
    eigenvector:
    - # atom 1
      - [  0.00001611477030,  0.00000000000000 ]
      - [ -0.00014688477979,  0.00000000000000 ]
      - [  0.00027637854807, -0.00000000000000 ]
    - # atom 2
      - [  0.35354486360938,  0.61242946133557 ]
      - [ -0.00005685816158, -0.00009849277094 ]
      - [  0.00039846076119,  0.00069023519914 ]
    - # atom 3
      - [ -0.35353994437407, -0.61232663074595 ]
      - [  0.00021886921282,  0.00037907865798 ]
      - [  0.00046135895007,  0.00079906776011 ]
  - # 5
    frequency:    5.8905352313
    eigenvector:
    - # atom 1
      - [ -0.00004961396304,  0.00000000000000 ]
      - [ -0.00006846323768, -0.00000000000000 ]
      - [ -0.05742072750669,  0.00000000000001 ]
    - # atom 2
      - [ -0.00042824962420, -0.00074183707265 ]
      - [ -0.19047158061270, -0.32994513432927 ]
      - [  0.29699896922520,  0.51447761645827 ]
    - # atom 3
      - [  0.00043170961057,  0.00074771548594 ]
      - [  0.19079122774747,  0.33044794943887 ]
      - [  0.29710473198642,  0.51458156966965 ]
  - # 6
    frequency:    6.4076837465
    eigenvector:
    - # atom 1
      - [  0.00037473582665,  0.00000000000000 ]
      - [  0.06894710767074,  0.00000000000000 ]
      - [  0.00003478433780, -0.00000000000000 ]
    - # atom 2
      - [ -0.00003423371108, -0.00005930147880 ]
      - [  0.35218803409532,  0.61007908815057 ]
      - [  0.01968221325955,  0.03409459026346 ]
    - # atom 3
      - [  0.00011609220499,  0.00020107020401 ]
      - [  0.35210069319795,  0.60983386624734 ]
      - [ -0.01994495885683, -0.03454441188779 ]
  - # 7
    frequency:    8.2189884013
    eigenvector:
    - # atom 1
      - [ -0.84399290114348, -0.00000000000000 ]
      - [ -0.00115980785159,  0.00000000000000 ]
      - [ -0.00052609200615,  0.00000000000000 ]
    - # atom 2
      - [  0.18960478434122,  0.32844362312596 ]
      - [  0.00020692266770,  0.00035844259375 ]
      - [  0.00041871433057,  0.00072531952327 ]
    - # atom 3
      - [  0.18964161523828,  0.32845683537786 ]
      - [ -0.00001246326673, -0.00002158621747 ]
      - [ -0.00034089393620, -0.00059042390745 ]
  - # 8
    frequency:    8.5732998030
    eigenvector:
    - # atom 1
      - [ -0.00136984567211,  0.00000000000000 ]
      - [  0.78890352646805, -0.00000000000011 ]
      - [  0.00092930620310,  0.00000000000000 ]
    - # atom 2
      - [  0.00030326526401,  0.00052533242990 ]
      - [ -0.00727770958836, -0.01260684066367 ]
      - [ -0.21722763647744, -0.37629341588404 ]
    - # atom 3
      - [  0.00025682399951,  0.00044481585976 ]
      - [ -0.00689981307043, -0.01195038738182 ]
      - [  0.21705491819826,  0.37593632307444 ]
  - # 9
    frequency:    8.7100196468
    eigenvector:
    - # atom 1
      - [  0.00051311502048,  0.00000000000000 ]
      - [  0.00087780576044, -0.00000000000000 ]
      - [ -0.82672975575691,  0.00000000000001 ]
    - # atom 2
      - [ -0.00008446455774, -0.00014631405777 ]
      - [  0.17587197242916,  0.30465490642358 ]
      - [  0.09264829531146,  0.16049036892325 ]
    - # atom 3
      - [ -0.00015734155184, -0.00027251354153 ]
      - [ -0.17588315156957, -0.30462735348587 ]
      - [  0.09313904656685,  0.16131562920416 ]

- q-position: [    0.0000000,    0.4958333,    0.0000000 ]
  distance:    0.0014492
  band:
  - # 1
    frequency:    3.1718963568
    eigenvector:
    - # atom 1
      - [ -0.53636070169619,  0.00000000000000 ]
      - [ -0.00032919813675,  0.00000458688353 ]
      - [ -0.00010244538838, -0.00031205274847 ]
    - # atom 2
      - [ -0.30572619597933, -0.51247764105109 ]
      - [  0.00031165873490, -0.00000878531355 ]
      - [ -0.00008601178610, -0.00031930050467 ]
    - # atom 3
      - [ -0.30548688320620, -0.51273042237233 ]
      - [ -0.00006891527847,  0.00042575663125 ]
      - [  0.00014537002306,  0.00007987147621 ]
  - # 2
    frequency:    3.8023459258
    eigenvector:
    - # atom 1
      - [ -0.00032167148791,  0.00000000000000 ]
      - [  0.00006019344230,  0.00012844601269 ]
      - [  0.23895054115802,  0.50606798555511 ]
    - # atom 2
      - [ -0.00007465550593, -0.00058132244145 ]
      - [ -0.27618104379230,  0.39310202888189 ]
      - [ -0.18049578542804,  0.28306940317375 ]
    - # atom 3
      - [ -0.00027535456788,  0.00007906578372 ]
      - [  0.27604089371417, -0.39318395918872 ]
      - [ -0.18028725583969,  0.28282397120083 ]
  - # 3
    frequency:    4.8179358172
    eigenvector:
    - # atom 1
      - [  0.00016577894537,  0.00000000000000 ]
      - [ -0.60966437740954,  0.03464590473643 ]
      - [  0.00015165349861, -0.00010296747743 ]
    - # atom 2
      - [ -0.00015793957945,  0.00034340619851 ]
      - [  0.02581249507433,  0.05642093539200 ]
      - [ -0.30276777910606, -0.46697366453526 ]
    - # atom 3
      - [  0.00052560365579,  0.00021427454600 ]
      - [  0.02530312440624,  0.05628274441609 ]
      - [  0.30222051941105,  0.46731242869198 ]
  - # 4
    frequency:    5.2724071113
    eigenvector:
    - # atom 1
      - [ -0.00020873214774,  0.00000000000000 ]
      - [ -0.00029835712549,  0.00018116587541 ]
      - [  0.00000145111075, -0.00027729466459 ]
    - # atom 2
      - [  0.57797002693017, -0.40745390910124 ]
      - [ -0.00010517675221,  0.00006026306222 ]
      - [  0.00053475980783, -0.00061780133796 ]
    - # atom 3
      - [ -0.57801083910691,  0.40722639076738 ]
      - [  0.00025755165936, -0.00038738008930 ]
      - [  0.00093400653692, -0.00028820068462 ]
  - # 5
    frequency:    5.8907371283
    eigenvector:
    - # atom 1
      - [ -0.00011805792996,  0.00000000000000 ]
      - [ -0.00045115441047, -0.00011208364436 ]
      - [ -0.02479693408219,  0.05173651064459 ]
    - # atom 2
      - [ -0.00085635332868,  0.00004855825067 ]
      - [ -0.38000413419813,  0.03013791697078 ]
      - [  0.58934450935815, -0.07355243570525 ]
    - # atom 3
      - [  0.00085194388438, -0.00015364983979 ]
      - [  0.38052181750858, -0.03066590474942 ]
      - [  0.58956077927951, -0.07306995987110 ]
  - # 6
    frequency:    6.4075172468
    eigenvector:
    - # atom 1
      - [ -0.00037463034153,  0.00000000000000 ]
      - [ -0.06889711908389,  0.00327750106054 ]
      - [ -0.00003756512806, -0.00006468584919 ]
    - # atom 2
      - [ -0.00006704622759,  0.00011732848836 ]
      - [ -0.35993254485449, -0.60543945071448 ]
      - [ -0.02931765839478, -0.02834768073671 ]
    - # atom 3
      - [ -0.00001301460810, -0.00026032917078 ]
      - [ -0.36018612764735, -0.60501291540956 ]
      - [  0.02927216435965,  0.02896890456272 ]
  - # 7
    frequency:    8.2190148572
    eigenvector:
    - # atom 1
      - [ -0.84398739005099, -0.00000000000000 ]
      - [ -0.00115994949628,  0.00001864686669 ]
      - [ -0.00052722222366,  0.00010979136500 ]
    - # atom 2
      - [  0.19414804446348,  0.32578369838454 ]
      - [  0.00029192241677,  0.00030983115672 ]
      - [  0.00043367025909,  0.00071636834564 ]
    - # atom 3
      - [  0.19428191728344,  0.32574276749833 ]
      - [ -0.00007833627155,  0.00001578216656 ]
      - [ -0.00033638102306, -0.00059356439004 ]
  - # 8
    frequency:    8.5732395524
    eigenvector:
    - # atom 1
      - [ -0.00137034004722,  0.00000000000000 ]
      - [  0.78883035372106, -0.00971798360031 ]
      - [  0.00093624455404, -0.00114138669771 ]
    - # atom 2
      - [  0.00032806605704,  0.00051131030705 ]
      - [ -0.01242213418584, -0.00960438756790 ]
      - [ -0.22056803554974, -0.37431294717250 ]
    - # atom 3
      - [  0.00024463515339,  0.00045204828879 ]
      - [ -0.01112276376811, -0.00946889971188 ]
      - [  0.22007364482958,  0.37415874163846 ]
  - # 9
    frequency:    8.7102682675
    eigenvector:
    - # atom 1
      - [  0.00052580335109,  0.00000000000000 ]
      - [  0.00109645987162,  0.00082006381311 ]
      - [ -0.80778569464731,  0.17602799955776 ]
    - # atom 2
      - [ -0.00009363459916, -0.00014479649581 ]
      - [  0.23520760229745,  0.26144971742074 ]
      - [  0.13020643748224,  0.13207796958483 ]
    - # atom 3
      - [ -0.00012352240255, -0.00031573109101 ]
      - [ -0.23522055491154, -0.26142950090989 ]
      - [  0.12992235417496,  0.13365376978142 ]

- q-position: [    0.0000000,    0.4916667,    0.0000000 ]
  distance:    0.0028983
  band:
  - # 1
    frequency:    3.1712547290
    eigenvector:
    - # atom 1
      - [ -0.53638629434083,  0.00000000000000 ]
      - [ -0.00032930025991,  0.00000918848305 ]
      - [ -0.00012500982699, -0.00062448747494 ]
    - # atom 2
      - [ -0.31303281009677, -0.50802454492932 ]
      - [  0.00054236221362, -0.00015847776788 ]
      - [ -0.00002562810510, -0.00038421951924 ]
    - # atom 3
      - [ -0.31248647904270, -0.50848994203469 ]
      - [ -0.00029779300223,  0.00057511792116 ]
      - [  0.00020666184543,  0.00001488836637 ]
  - # 2
    frequency:    3.7998527104
    eigenvector:
    - # atom 1
      - [ -0.00060416713906,  0.00000000000000 ]
      - [  0.00004054050111,  0.00014722478245 ]
      - [  0.14966694736540,  0.53921257103096 ]
    - # atom 2
      - [ -0.00024949944068, -0.00086698212105 ]
      - [ -0.34078336639140,  0.33822361688357 ]
      - [ -0.21650115416390,  0.25719405516677 ]
    - # atom 3
      - [ -0.00040405356811, -0.00010852939957 ]
      - [  0.34057231245841, -0.33842352108902 ]
      - [ -0.21621587067783,  0.25696088974628 ]
  - # 3
    frequency:    4.8174519292
    eigenvector:
    - # atom 1
      - [  0.00016684956313,  0.00000000000000 ]
      - [ -0.60676908583088,  0.06906063144788 ]
      - [  0.00015603775094, -0.00020583627054 ]
    - # atom 2
      - [ -0.00040578588794,  0.00052596691952 ]
      - [  0.02134668268138,  0.06031118486470 ]
      - [ -0.32624178154867, -0.45057684743051 ]
    - # atom 3
      - [  0.00080616048118,  0.00000979604842 ]
      - [  0.02049441050565,  0.06033468224347 ]
      - [  0.32517322801498,  0.45134962224860 ]
  - # 4
    frequency:    5.2722532395
    eigenvector:
    - # atom 1
      - [  0.00041590281610,  0.00000000000000 ]
      - [  0.00061275579958, -0.00021351833671 ]
      - [ -0.00003471831877,  0.00027783723509 ]
    - # atom 2
      - [ -0.58809795351320,  0.39271042366003 ]
      - [  0.00013025424766, -0.00005975502789 ]
      - [ -0.00043173865530,  0.00076014503170 ]
    - # atom 3
      - [  0.58825992305470, -0.39225829513781 ]
      - [ -0.00016446181406,  0.00051304954870 ]
      - [ -0.00112469188364,  0.00002562948488 ]
  - # 5
    frequency:    5.8913402569
    eigenvector:
    - # atom 1
      - [ -0.00021947227380,  0.00000000000000 ]
      - [ -0.00091756618009, -0.00006314370817 ]
      - [ -0.01439821398374,  0.05538438780197 ]
    - # atom 2
      - [ -0.00083858254789,  0.00019592249429 ]
      - [ -0.36758379996499,  0.10342682957269 ]
      - [  0.55459734395400, -0.21138528162718 ]
    - # atom 3
      - [  0.00077732496123, -0.00039615109030 ]
      - [  0.36775911461316, -0.10445021357326 ]
      - [  0.55514831886174, -0.21047490218484 ]
  - # 6
    frequency:    6.4070187053
    eigenvector:
    - # atom 1
      - [ -0.00037431461880,  0.00000000000000 ]
      - [ -0.06874679947700,  0.00656196376747 ]
      - [ -0.00004589220641, -0.00012885805516 ]
    - # atom 2
      - [ -0.00016852662711,  0.00017458796114 ]
      - [ -0.36751838999714, -0.60055375373615 ]
      - [ -0.03879059097629, -0.02232572777068 ]
    - # atom 3
      - [  0.00009008200629, -0.00031908479828 ]
      - [ -0.36812628540299, -0.59997060162394 ]
      - [  0.03843205809426,  0.02310966184932 ]
  - # 7
    frequency:    8.2190942499
    eigenvector:
    - # atom 1
      - [ -0.84397084749745, -0.00000000000000 ]
      - [ -0.00116037427362,  0.00003728587389 ]
      - [ -0.00053059340125,  0.00021927795962 ]
    - # atom 2
      - [  0.19865816947963,  0.32306858721541 ]
      - [  0.00037700377003,  0.00026207407264 ]
      - [  0.00044842911878,  0.00070689397701 ]
    - # atom 3
      - [  0.19889065410517,  0.32297717540847 ]
      - [ -0.00014445001602,  0.00005197382799 ]
      - [ -0.00033225192680, -0.00059755428279 ]
  - # 8
    frequency:    8.5730589385
    eigenvector:
    - # atom 1
      - [ -0.00137181601952,  0.00000000000000 ]
      - [  0.78861110350212, -0.01942655722511 ]
      - [  0.00095682762137, -0.00226430882870 ]
    - # atom 2
      - [  0.00035308749728,  0.00049774805032 ]
      - [ -0.01752873972087, -0.00655830136252 ]
      - [ -0.22385603898888, -0.37225890985560 ]
    - # atom 3
      - [  0.00023267200681,  0.00045953254023 ]
      - [ -0.01531456016543, -0.00691917270573 ]
      - [  0.22306083414695,  0.37232987720368 ]
  - # 9
    frequency:    8.7110141581
    eigenvector:
    - # atom 1
      - [  0.00056198503247,  0.00000000000000 ]
      - [  0.00168977915997,  0.00150270957845 ]
      - [ -0.75858116349273,  0.32881992923310 ]
    - # atom 2
      - [ -0.00010596822812, -0.00014857738905 ]
      - [  0.27990374561486,  0.21244269731240 ]
      - [  0.15771607000899,  0.09846816389167 ]
    - # atom 3
      - [ -0.00011512655168, -0.00038636030909 ]
      - [ -0.27994171020054, -0.21244039684812 ]
      - [  0.15702489248824,  0.10110886563290 ]

- q-position: [    0.0000000,    0.4875000,    0.0000000 ]
  distance:    0.0043475
  band:
  - # 1
    frequency:    3.1701847259
    eigenvector:
    - # atom 1
      - [ -0.53642899234967,  0.00000000000000 ]
      - [ -0.00032946694946,  0.00001381931519 ]
      - [ -0.00016271328442, -0.00093769311767 ]
    - # atom 2
      - [ -0.32026498150768, -0.50345797971278 ]
      - [  0.00076886380845, -0.00031680544157 ]
      - [  0.00002535316283, -0.00046384901925 ]
    - # atom 3
      - [ -0.31942407156871, -0.50415255563092 ]
      - [ -0.00052225414429,  0.00073345619382 ]
      - [  0.00025869962758, -0.00006458440652 ]
  - # 2
    frequency:    3.7957060826
    eigenvector:
    - # atom 1
      - [ -0.00089729980572,  0.00000000000000 ]
      - [  0.00003915145028,  0.00016589780913 ]
      - [  0.12599381310091,  0.54515191353718 ]
    - # atom 2
      - [ -0.00046999422346, -0.00117477234455 ]
      - [ -0.35688918491088,  0.32046899998377 ]
      - [ -0.21844156001670,  0.25656462038360 ]
    - # atom 3
      - [ -0.00050655897247, -0.00028075077049 ]
      - [  0.35660919537287, -0.32077866984855 ]
      - [ -0.21808675737723,  0.25629842525442 ]
  - # 3
    frequency:    4.8166426004
    eigenvector:
    - # atom 1
      - [ -0.00016862102294,  0.00000000000000 ]
      - [  0.60199865271409, -0.10302348905014 ]
      - [ -0.00016312266598,  0.00030847062110 ]
    - # atom 2
      - [  0.00063831441260, -0.00072499502197 ]
      - [ -0.01732249622793, -0.06480638774489 ]
      - [  0.34854864425801,  0.43301357864563 ]
    - # atom 3
      - [ -0.00107008527295,  0.00021232347178 ]
      - [ -0.01611434198878, -0.06497564342702 ]
      - [ -0.34701626886825, -0.43427279309431 ]
  - # 4
    frequency:    5.2719967919
    eigenvector:
    - # atom 1
      - [ -0.00062202714916,  0.00000000000000 ]
      - [ -0.00091842441159,  0.00026655999595 ]
      - [  0.00006038445747, -0.00027781818740 ]
    - # atom 2
      - [  0.58795961736998, -0.39294417307527 ]
      - [ -0.00016513681373,  0.00006969177573 ]
      - [  0.00030771737227, -0.00090988832011 ]
    - # atom 3
      - [ -0.58823840722576,  0.39226192390160 ]
      - [  0.00005598411039, -0.00063921038732 ]
      - [  0.00131717036495,  0.00020206302563 ]
  - # 5
    frequency:    5.8923369751
    eigenvector:
    - # atom 1
      - [ -0.00032336264231,  0.00000000000000 ]
      - [ -0.00137111148597,  0.00003175175338 ]
      - [ -0.01093758157838,  0.05591862583250 ]
    - # atom 2
      - [ -0.00083507659254,  0.00023238347580 ]
      - [ -0.36128695596362,  0.12697291434743 ]
      - [  0.52792990049513, -0.26974818370474 ]
    - # atom 3
      - [  0.00071378787091, -0.00052038258095 ]
      - [  0.36107754755715, -0.12835629830702 ]
      - [  0.52887184065805, -0.26845437777702 ]
  - # 6
    frequency:    6.4061909939
    eigenvector:
    - # atom 1
      - [  0.00037379085102,  0.00000000000000 ]
      - [  0.06849509132971, -0.00986026982807 ]
      - [  0.00005971990505,  0.00019200679508 ]
    - # atom 2
      - [  0.00027002825640, -0.00023096756280 ]
      - [  0.37493326236387,  0.59542933543475 ]
      - [  0.04809845057131,  0.01603084101284 ]
    - # atom 3
      - [ -0.00019299837361,  0.00037720978918 ]
      - [  0.37590817987523,  0.59471460539019 ]
      - [ -0.04742219587174, -0.01696855433619 ]
  - # 7
    frequency:    8.2192266535
    eigenvector:
    - # atom 1
      - [ -0.84394324573304, -0.00000000000000 ]
      - [ -0.00116108170801,  0.00005590918058 ]
      - [ -0.00053614750144,  0.00032815465914 ]
    - # atom 2
      - [  0.20313425782522,  0.32029894451998 ]
      - [  0.00046184233013,  0.00021531868072 ]
      - [  0.00046306448837,  0.00069684748910 ]
    - # atom 3
      - [  0.20346650295914,  0.32016091406609 ]
      - [ -0.00021045937203,  0.00008683089007 ]
      - [ -0.00032843058413, -0.00060244128372 ]
  - # 8
    frequency:    8.5727583737
    eigenvector:
    - # atom 1
      - [ -0.00137425256846,  0.00000000000000 ]
      - [  0.78824658083895, -0.02911614975923 ]
      - [  0.00099037601050, -0.00335112868662 ]
    - # atom 2
      - [  0.00037829213449,  0.00048465949725 ]
      - [ -0.02258824583211, -0.00347356240034 ]
      - [ -0.22708478731872, -0.37013648264698 ]
    - # atom 3
      - [  0.00022098433864,  0.00046721718558 ]
      - [ -0.01948145489825, -0.00429856070007 ]
      - [  0.22601459133254,  0.37045029613602 ]
  - # 9
    frequency:    8.7122574011
    eigenvector:
    - # atom 1
      - [  0.00061708784538,  0.00000000000000 ]
      - [  0.00251903996941,  0.00198189053543 ]
      - [ -0.69503233834897,  0.44788918345196 ]
    - # atom 2
      - [ -0.00012120166389, -0.00015670146177 ]
      - [  0.30941140533794,  0.16555865178530 ]
      - [  0.17504636075210,  0.06492202414098 ]
    - # atom 3
      - [ -0.00013050087211, -0.00047347945989 ]
      - [ -0.30950139567592, -0.16557255619241 ]
      - [  0.17429867091021,  0.06875899033429 ]

- q-position: [    0.0000000,    0.4833333,    0.0000000 ]
  distance:    0.0057967
  band:
  - # 1
    frequency:    3.1686854163
    eigenvector:
    - # atom 1
      - [ -0.53648886053770,  0.00000000000000 ]
      - [ -0.00032969298270,  0.00001849350124 ]
      - [ -0.00021570189869, -0.00125207271380 ]
    - # atom 2
      - [ -0.32741955005320, -0.49878021957743 ]
      - [  0.00099143546748, -0.00048400661620 ]
      - [  0.00006652362345, -0.00055810260704 ]
    - # atom 3
      - [ -0.32629740235199, -0.49971962459107 ]
      - [ -0.00074256592712,  0.00090100373005 ]
      - [  0.00030107969343, -0.00015847016936 ]
  - # 2
    frequency:    3.7899189945
    eigenvector:
    - # atom 1
      - [ -0.00119594123120,  0.00000000000000 ]
      - [  0.00004538447807,  0.00018926376687 ]
      - [  0.12107737051089,  0.54615730703584 ]
    - # atom 2
      - [ -0.00071215068067, -0.00148403576760 ]
      - [ -0.36124454757184,  0.31454251616271 ]
      - [ -0.21168663732529,  0.26353794304322 ]
    - # atom 3
      - [ -0.00060592366256, -0.00045203653891 ]
      - [  0.36089568649217, -0.31495697447766 ]
      - [ -0.21125026944325,  0.26320970926960 ]
  - # 3
    frequency:    4.8155035584
    eigenvector:
    - # atom 1
      - [ -0.00017107433799,  0.00000000000000 ]
      - [  0.59543091064123, -0.13633347732562 ]
      - [ -0.00017258702746,  0.00041066483722 ]
    - # atom 2
      - [  0.00085412237077, -0.00093822590909 ]
      - [ -0.01376342333620, -0.06987167928159 ]
      - [  0.36955781762842,  0.41443978820128 ]
    - # atom 3
      - [ -0.00131580528964,  0.00044961867353 ]
      - [ -0.01218594763957, -0.07017260045909 ]
      - [ -0.36762544198041, -0.41622768270867 ]
  - # 4
    frequency:    5.2716377771
    eigenvector:
    - # atom 1
      - [ -0.00082632860927,  0.00000000000000 ]
      - [ -0.00121611315001,  0.00034008538623 ]
      - [  0.00008353282370, -0.00027766331036 ]
    - # atom 2
      - [  0.58528134327780, -0.39695905149224 ]
      - [ -0.00021048495928,  0.00008863310955 ]
      - [  0.00017231049291, -0.00105320402568 ]
    - # atom 3
      - [ -0.58567279966866,  0.39604295916611 ]
      - [ -0.00006223688203, -0.00075793237763 ]
      - [  0.00151978036606,  0.00040771682248 ]
  - # 5
    frequency:    5.8937146943
    eigenvector:
    - # atom 1
      - [ -0.00042679796635,  0.00000000000000 ]
      - [ -0.00180901505955,  0.00016491860335 ]
      - [ -0.00947128213868,  0.05582958433092 ]
    - # atom 2
      - [ -0.00084098520429,  0.00023989062329 ]
      - [ -0.35906067251045,  0.13743204429895 ]
      - [  0.50647242852024, -0.30637296947605 ]
    - # atom 3
      - [  0.00065782242926, -0.00061104020689 ]
      - [  0.35842650717625, -0.13910469132829 ]
      - [  0.50784615057202, -0.30474589425670 ]
  - # 6
    frequency:    6.4050388970
    eigenvector:
    - # atom 1
      - [  0.00037306267439,  0.00000000000000 ]
      - [  0.06814024541489, -0.01317914153938 ]
      - [  0.00007897280683,  0.00025362990793 ]
    - # atom 2
      - [  0.00037137212931, -0.00028634951954 ]
      - [  0.38216503995131,  0.59007358074104 ]
      - [  0.05723879306994,  0.00946548316859 ]
    - # atom 3
      - [ -0.00029553686097,  0.00043456999899 ]
      - [  0.38351894962111,  0.58925265138404 ]
      - [ -0.05624021668322, -0.01054771200913 ]
  - # 7
    frequency:    8.2194121902
    eigenvector:
    - # atom 1
      - [ -0.84390453876847, -0.00000000000000 ]
      - [ -0.00116207098975,  0.00007450897818 ]
      - [ -0.00054378907581,  0.00043611568262 ]
    - # atom 2
      - [  0.20757544270051,  0.31747549465953 ]
      - [  0.00054610583908,  0.00016969127357 ]
      - [  0.00047764362490,  0.00068617973145 ]
    - # atom 3
      - [  0.20800816788889,  0.31729488395585 ]
      - [ -0.00027601129917,  0.00012021743671 ]
      - [ -0.00032484628125, -0.00060827208488 ]
  - # 8
    frequency:    8.5723385415
    eigenvector:
    - # atom 1
      - [ -0.00137761606824,  0.00000000000000 ]
      - [  0.78773813057062, -0.03877688583704 ]
      - [  0.00103581043882, -0.00438578594595 ]
    - # atom 2
      - [  0.00040363961375,  0.00047205545878 ]
      - [ -0.02759197270540, -0.00035462029730 ]
      - [ -0.23024785470694, -0.36795133900461 ]
    - # atom 3
      - [  0.00020961491404,  0.00047504141580 ]
      - [ -0.02362929686340, -0.00160525389930 ]
      - [  0.22893247692181,  0.36852058948248 ]
  - # 9
    frequency:    8.7139981271
    eigenvector:
    - # atom 1
      - [  0.00068589052589,  0.00000000000000 ]
      - [  0.00345064074691,  0.00226217620835 ]
      - [ -0.63046745140845,  0.53510171944622 ]
    - # atom 2
      - [ -0.00013903520010, -0.00016794729776 ]
      - [  0.32712291994056,  0.12518934993756 ]
      - [  0.18456133815710,  0.03451529552264 ]
    - # atom 3
      - [ -0.00016440175054, -0.00056836762309 ]
      - [ -0.32728930766750, -0.12520912443335 ]
      - [  0.18402089834492,  0.03954455849781 ]

- q-position: [    0.0000000,    0.4791667,    0.0000000 ]
  distance:    0.0072459
  band:
  - # 1
    frequency:    3.1667555053
    eigenvector:
    - # atom 1
      - [ -0.53656598847254,  0.00000000000000 ]
      - [ -0.00032997114885,  0.00002322457778 ]
      - [ -0.00028418443489, -0.00156805090297 ]
    - # atom 2
      - [ -0.33449343069375, -0.49399367567303 ]
      - [  0.00121035046974, -0.00066035551338 ]
      - [  0.00009744398401, -0.00066694073352 ]
    - # atom 3
      - [ -0.33310420829731, -0.49519253957984 ]
      - [ -0.00095899757444,  0.00107802785892 ]
      - [  0.00033336564508, -0.00026674067191 ]
  - # 2
    frequency:    3.7825092947
    eigenvector:
    - # atom 1
      - [ -0.00149985400982,  0.00000000000000 ]
      - [  0.00005726809024,  0.00021718993484 ]
      - [  0.12383509568450,  0.54540315430353 ]
    - # atom 2
      - [ -0.00097119008349, -0.00178978466254 ]
      - [ -0.36098285246997,  0.31355803224210 ]
      - [ -0.20121397402421,  0.27329717049705 ]
    - # atom 3
      - [ -0.00070792683169, -0.00062753045389 ]
      - [  0.36056544756429, -0.31407274521746 ]
      - [ -0.20068302088377,  0.27288175938181 ]
  - # 3
    frequency:    4.8140288238
    eigenvector:
    - # atom 1
      - [ -0.00017418363333,  0.00000000000000 ]
      - [  0.58716614903604, -0.16881619745019 ]
      - [ -0.00018400454205,  0.00051211817372 ]
    - # atom 2
      - [  0.00105216764593, -0.00116313857568 ]
      - [ -0.01068804779299, -0.07546845665179 ]
      - [  0.38917001028490,  0.39501683687254 ]
    - # atom 3
      - [ -0.00154214647527,  0.00069936051797 ]
      - [ -0.00872792283870, -0.07588901492411 ]
      - [ -0.38690575360856, -0.39736462995771 ]
  - # 4
    frequency:    5.2711762076
    eigenvector:
    - # atom 1
      - [ -0.00102816125848,  0.00000000000000 ]
      - [ -0.00150417772163,  0.00043346947662 ]
      - [  0.00010501367877, -0.00027741912590 ]
    - # atom 2
      - [  0.58154393639631, -0.40246044906276 ]
      - [ -0.00026583989215,  0.00011651038496 ]
      - [  0.00002824450075, -0.00118626124342 ]
    - # atom 3
      - [ -0.58204427225096,  0.40130720780679 ]
      - [ -0.00018828786397, -0.00086681227390 ]
      - [  0.00173241587231,  0.00059261473567 ]
  - # 5
    frequency:    5.8954560959
    eigenvector:
    - # atom 1
      - [ -0.00052879542117,  0.00000000000000 ]
      - [ -0.00222750255313,  0.00033365877314 ]
      - [ -0.00880485560440,  0.05547314063091 ]
    - # atom 2
      - [ -0.00085199012871,  0.00023637900782 ]
      - [ -0.35901639403262,  0.14282780965278 ]
      - [  0.48737882966600, -0.33383419139356 ]
    - # atom 3
      - [  0.00060553993103, -0.00068629915904 ]
      - [  0.35791812124895, -0.14473005333612 ]
      - [  0.48921708685447, -0.33192884741577 ]
  - # 6
    frequency:    6.4035691072
    eigenvector:
    - # atom 1
      - [  0.00037213514140,  0.00000000000000 ]
      - [  0.06767984044440, -0.01652506323856 ]
      - [  0.00010354677991,  0.00031323677707 ]
    - # atom 2
      - [  0.00047237822673, -0.00034061038940 ]
      - [  0.38920185384390,  0.58449387829884 ]
      - [  0.06620925591941,  0.00263248753143 ]
    - # atom 3
      - [ -0.00039750036819,  0.00049102437709 ]
      - [  0.39094590269542,  0.58359247421931 ]
      - [ -0.06488381749295, -0.00384953944253 ]
  - # 7
    frequency:    8.2196510280
    eigenvector:
    - # atom 1
      - [ -0.84385466276370,  0.00000000000000 ]
      - [ -0.00116334095131,  0.00009307749574 ]
      - [ -0.00055338715149,  0.00054285439403 ]
    - # atom 2
      - [  0.21198089007344,  0.31459903245413 ]
      - [  0.00062945644351,  0.00012529731246 ]
      - [  0.00049222555952,  0.00067484306065 ]
    - # atom 3
      - [  0.21251438005850,  0.31438003113935 ]
      - [ -0.00034074730457,  0.00015201936829 ]
      - [ -0.00032143545152, -0.00061509069485 ]
  - # 8
    frequency:    8.5718003907
    eigenvector:
    - # atom 1
      - [ -0.00138186222544,  0.00000000000000 ]
      - [  0.78708764174257, -0.04839847577955 ]
      - [  0.00109172416732, -0.00535440738396 ]
    - # atom 2
      - [  0.00042908664906,  0.00045994439837 ]