48   
18   

1    
  0.0100000000000000   0.0000000000000000   0.0000000000000000
  -0.1962393700    0.0007174100    0.0000155600
   0.0050138800   -0.0099323100   -0.0000035300
   0.0004637000   -0.0001187200   -0.0000030700
   0.0045325800    0.0094220700   -0.0000034800
   0.0036786600   -0.0103869400   -0.0000029300
   0.0036785400    0.0102246500   -0.0000037600
   0.0006156900   -0.0010177000   -0.0000036700
   0.0006304400    0.0007535700   -0.0000034800
  -0.0005934200   -0.0007327500   -0.0000035700
   0.0021571900   -0.0001164200   -0.0000026300
  -0.0005937600    0.0004881400   -0.0000037300
   0.0021565400   -0.0001114600   -0.0000038400
   0.0037465300    0.0088904700   -0.0000038100
   0.0006256500    0.0007744000   -0.0000032300
   0.0006209600   -0.0009977700   -0.0000030200
   0.0036122700   -0.0092015800   -0.0000033000
   0.0360268700    0.0138819000    0.0363464400
   0.0367919800   -0.0137176400   -0.0169543000
   0.0013598900    0.0012943700    0.0100076400
   0.0013609900   -0.0006719500    0.0103270600
   0.0007674600   -0.0020346400    0.0104176800
   0.0125104000    0.0004191400    0.0100740700
   0.0007410600    0.0026626300    0.0098854400
   0.0000619400    0.0003014200    0.0101593300
   0.0000673400    0.0003087500    0.0101701100
   0.0009799500    0.0006637300    0.0101724000
   0.0009728500   -0.0000592600    0.0101631200
   0.0000686400    0.0003026700    0.0101524900
  -0.0033133400    0.0003144900    0.0101571400
   0.0006282400   -0.0006991000    0.0100057100
   0.0000621700    0.0003036900    0.0101597200
   0.0006314400    0.0013110400    0.0103168800
   0.0351909500    0.0133991100   -0.0363559300
   0.0359407900   -0.0142017200    0.0169511500
   0.0005127900    0.0008052000   -0.0100046200
   0.0005142700   -0.0011612000   -0.0103248500
  -0.0000793800   -0.0025238900   -0.0104141100
   0.0116634700   -0.0000683400   -0.0100692800
  -0.0001057000    0.0021731900   -0.0098820000
  -0.0007844500   -0.0001883200   -0.0101562600
  -0.0007790600   -0.0001810400   -0.0101656900
   0.0001331200    0.0001743500   -0.0101699700
   0.0001258500   -0.0005487200   -0.0101600700
  -0.0007780800   -0.0001869000   -0.0101487500
  -0.0041601500   -0.0001750400   -0.0101529300
  -0.0002183300   -0.0011886700   -0.0100012300
  -0.0007848900   -0.0001858400   -0.0101577800
  -0.0002151500    0.0008215500   -0.0103131400

1    
 -0.0100000000000000   0.0000000000000000   0.0000000000000000
   0.1967904200    0.0006222500   -0.0000290200
  -0.0039528100    0.0094231600   -0.0000025900
   0.0001147400   -0.0001163600   -0.0000030200
  -0.0044347000   -0.0099300400   -0.0000032100
  -0.0030992700    0.0102265300   -0.0000034500
  -0.0030998900   -0.0103857400   -0.0000027500
  -0.0000510500    0.0007560900   -0.0000031200
  -0.0000364000   -0.0010157000   -0.0000035600
   0.0011731500    0.0004902000   -0.0000044300
  -0.0015781400   -0.0001143100   -0.0000023400
   0.0011730400   -0.0007316000   -0.0000032200
  -0.0015785500   -0.0001098800   -0.0000039000
  -0.0030334900   -0.0091988000   -0.0000041400
  -0.0000419400   -0.0009955600   -0.0000036100
  -0.0000458800    0.0007760400   -0.0000029500
  -0.0031675600    0.0088927000   -0.0000040800
  -0.0362270000   -0.0137104300   -0.0169440200
  -0.0354760200    0.0138900800    0.0363554300
  -0.0008032800   -0.0006704000    0.0103279000
  -0.0008011900    0.0012968000    0.0100060200
  -0.0001832500    0.0026649500    0.0098843300
  -0.0119514500    0.0004235300    0.0100719100
  -0.0002104500   -0.0020325700    0.0104174800
   0.0004959700    0.0003033100    0.0101588900
   0.0004899800    0.0003047200    0.0101541700
  -0.0004151700   -0.0000571600    0.0101619800
  -0.0004217400    0.0006655300    0.0101726700
   0.0004908300    0.0003112000    0.0101688200
   0.0038725500    0.0003160000    0.0101560400
  -0.0000734800    0.0013122300    0.0103164300
   0.0004959200    0.0003061100    0.0101595000
  -0.0000704200   -0.0006966900    0.0100057200
  -0.0370853900   -0.0142063700    0.0169622500
  -0.0363178600    0.0133957600   -0.0363435700
  -0.0016494300   -0.0011594600   -0.0103242200
  -0.0016484200    0.0008072700   -0.0100031000
  -0.0010304100    0.0021752800   -0.0098810300
  -0.0127980900   -0.0000670000   -0.0100684100
  -0.0010567800   -0.0025215400   -0.0104149400
  -0.0003508300   -0.0001866100   -0.0101553800
  -0.0003565400   -0.0001852100   -0.0101489200
  -0.0012617400   -0.0005464900   -0.0101596000
  -0.0012690200    0.0001763900   -0.0101700600
  -0.0003561000   -0.0001784100   -0.0101649000
   0.0030256400   -0.0001731900   -0.0101525100
  -0.0009198900    0.0008232200   -0.0103106300
  -0.0003507100   -0.0001833200   -0.0101574400
  -0.0009179300   -0.0011865100   -0.0100014400

1    
 -0.0050000000000000   0.0086602540378444   0.0000000000000000
   0.0978897800   -0.1707791200   -0.0000026400
   0.0064897500    0.0072968600   -0.0000029600
   0.0002003900   -0.0011912300   -0.0000030000
  -0.0103664500   -0.0023593200   -0.0000026500
   0.0064210800    0.0088754100   -0.0000036600
  -0.0092454200   -0.0016336700   -0.0000031600
  -0.0006550300    0.0014918200   -0.0000032600
   0.0009011100    0.0006098300   -0.0000035200
   0.0001979000    0.0000278100   -0.0000041400
  -0.0006560000   -0.0002784100   -0.0000026900
   0.0012586400   -0.0005806900   -0.0000034100
  -0.0006415000   -0.0002640200   -0.0000039600
  -0.0100980400   -0.0012182500   -0.0000038000
   0.0008808300    0.0006044300   -0.0000035900
  -0.0006509900    0.0014932900   -0.0000028600
   0.0074828600    0.0079472200   -0.0000043800
  -0.0059382700    0.0108414000    0.0100744000
  -0.0293626800    0.0244822900    0.0363559500
  -0.0007688300    0.0001088900    0.0103184700
   0.0002467800    0.0010903300    0.0101630400
  -0.0019959300   -0.0004721100    0.0098842000
  -0.0058362600    0.0389424400   -0.0169593300
   0.0020654700   -0.0028093700    0.0101562100
   0.0003858700    0.0001256700    0.0101511200
   0.0003893900    0.0001213100    0.0101617200
  -0.0011197300    0.0007482100    0.0100050600
   0.0009730300    0.0011123200    0.0100074400
   0.0003803600    0.0001224700    0.0101694600
   0.0020602100    0.0018992400    0.0104172800
   0.0005823400    0.0017327800    0.0103251700
   0.0003875300    0.0001199700    0.0101593500
  -0.0003835200    0.0007351300    0.0101712800
  -0.0067853900    0.0103519800   -0.0100705200
  -0.0302036300    0.0239873800   -0.0363437300
  -0.0016152700   -0.0003803600   -0.0103151800
  -0.0006003500    0.0006010200   -0.0101604500
  -0.0028429100   -0.0009618900   -0.0098809400
  -0.0066809900    0.0384450400    0.0169554200
   0.0012186000   -0.0032985000   -0.0101538000
  -0.0004608900   -0.0003640600   -0.0101481300
  -0.0004568900   -0.0003683600   -0.0101570300
  -0.0019662600    0.0002588400   -0.0100027300
   0.0001262000    0.0006228500   -0.0100050400
  -0.0004664900   -0.0003669700   -0.0101659800
   0.0012136800    0.0014103300   -0.0104136700
  -0.0002642500    0.0012433800   -0.0103200100
  -0.0004593400   -0.0003694000   -0.0101575000
  -0.0012304800    0.0002458000   -0.0101678400

1    
  0.0050000000000000  -0.0086602540378444   0.0000000000000000
  -0.0987013900    0.1697330500   -0.0000025900
  -0.0057869300   -0.0076235900   -0.0000029200
   0.0003768400    0.0009471100   -0.0000030800
   0.0108739600    0.0020737200   -0.0000039600
  -0.0058544100   -0.0085696300   -0.0000032100
   0.0098147300    0.0015376400   -0.0000033200
   0.0012140700   -0.0017461700   -0.0000032800
  -0.0002984100   -0.0008565300   -0.0000035500
   0.0003737900   -0.0002766300   -0.0000037000
   0.0012136100    0.0000268500   -0.0000023200
  -0.0006805000    0.0003357100   -0.0000033700
   0.0012280900    0.0000415800   -0.0000039300
   0.0111470400    0.0006901100   -0.0000041800
  -0.0003183200   -0.0008623600   -0.0000029100
   0.0012185500   -0.0017442000   -0.0000028700
  -0.0069767800   -0.0082318100   -0.0000034200
   0.0062953400   -0.0103457700    0.0100752800
   0.0306792500   -0.0243071600   -0.0169553800
   0.0013245800    0.0005036100    0.0100077400
   0.0003193200   -0.0004818300    0.0101734000
   0.0025496000    0.0010502800    0.0104179900
   0.0063958400   -0.0374557000    0.0363584000
  -0.0015254500    0.0034102600    0.0101567100
   0.0001705900    0.0004849500    0.0101684500
   0.0001739200    0.0004941500    0.0101609500
   0.0016666700   -0.0001442800    0.0103261400
  -0.0004154700   -0.0005031300    0.0103172200
   0.0001770400    0.0004889100    0.0101528100
  -0.0015311300   -0.0012755300    0.0098857700
  -0.0000379200   -0.0011264800    0.0100049800
   0.0001721800    0.0004928900    0.0101601300
   0.0009420600   -0.0001140400    0.0101625400
   0.0054481600   -0.0108351400   -0.0100715000
   0.0298266100   -0.0247905100    0.0169510000
   0.0004776000    0.0000143500   -0.0100048500
  -0.0005278600   -0.0009712900   -0.0101708600
   0.0017029000    0.0005609500   -0.0104147700
   0.0055472300   -0.0379367300   -0.0363462200
  -0.0023718900    0.0029208600   -0.0101540500
  -0.0006761600   -0.0000050300   -0.0101652400
  -0.0006726000    0.0000044300   -0.0101567400
   0.0008200900   -0.0006334000   -0.0103238400
  -0.0012623600   -0.0009918800   -0.0103144900
  -0.0006696900   -0.0000006700   -0.0101490100
  -0.0023783200   -0.0017654400   -0.0098819100
  -0.0008841500   -0.0016160200   -0.0100009200
  -0.0006749500    0.0000032200   -0.0101584000
   0.0000950500   -0.0006037100   -0.0101587200

1    
  0.0000000000000000   0.0000000000000000   0.0100000000000000
  -0.0000000000   -0.0000000000   -0.2334992900
   0.0000730500    0.0000337700   -0.0041974500
  -0.0000003300    0.0000044700    0.0011277000
  -0.0000724100    0.0000337700   -0.0041976100
  -0.0000657700    0.0000463700   -0.0041974500
   0.0000654500    0.0000458300   -0.0041976100
   0.0000004800   -0.0000002400    0.0000428400
  -0.0000000300    0.0000005300    0.0000428400
  -0.0000037100   -0.0000025300    0.0011277000
  -0.0000002700    0.0000016400    0.0000430600
   0.0000040400   -0.0000019500    0.0011277000
  -0.0000004500   -0.0000002900    0.0000428400
   0.0000069700   -0.0000795900   -0.0041976100
   0.0000015600   -0.0000005900    0.0000430600
  -0.0000012900   -0.0000010600    0.0000430600
  -0.0000072800   -0.0000801400   -0.0041974500
   0.0265831800    0.0153474300    0.0497527900
  -0.0265828500    0.0153480000    0.0497527900
  -0.0001998600   -0.0000800700    0.0105497900
   0.0001995000   -0.0000802100    0.0105497400
   0.0011605500   -0.0006699700    0.0116848000
  -0.0000003300   -0.0306954200    0.0497527900
  -0.0011604900   -0.0006700800    0.0116848000
   0.0000000100   -0.0002067300    0.0102009900
   0.0001790300    0.0001033700    0.0102009900
   0.0001692700   -0.0001330500    0.0105497900
  -0.0001692100   -0.0001326700    0.0105497400
  -0.0001790400    0.0001033500    0.0102009900
  -0.0000000600    0.0013400600    0.0116848000
  -0.0000302900    0.0002128800    0.0105497400
   0.0000000000   -0.0000000000    0.0104195200
   0.0000305800    0.0002131200    0.0105497900
  -0.0274757500   -0.0158635800    0.0303482200
   0.0274761400   -0.0158629000    0.0303482200
   0.0001850600    0.0000733200   -0.0097477400
  -0.0001855600    0.0000730900   -0.0097469700
  -0.0011726800    0.0006775400   -0.0086301200
  -0.0000003900    0.0317264800    0.0303482200
   0.0011731100    0.0006768000   -0.0086301200
  -0.0000003200    0.0002100900   -0.0101206800
  -0.0001817800   -0.0001053300   -0.0101206800
  -0.0001560300    0.0001236100   -0.0097477400
   0.0001560800    0.0001241500   -0.0097469700
   0.0001821100   -0.0001047700   -0.0101206800
  -0.0000004300   -0.0013543400   -0.0086301200
   0.0000294800   -0.0001972500   -0.0097469700
   0.0000000000   -0.0000000000   -0.0098982600
  -0.0000290300   -0.0001969300   -0.0097477400

1    
  0.0000000000000000   0.0000000000000000  -0.0100000000000000
   0.0000000000   -0.0000000000    0.2335314000
   0.0000736700    0.0000339900    0.0041899800
  -0.0000013300    0.0000052800   -0.0011353900
  -0.0000719800    0.0000341900    0.0041898800
  -0.0000662700    0.0000468000    0.0041899800
   0.0000656000    0.0000452400    0.0041898800
   0.0000015500   -0.0000000200   -0.0000506000
  -0.0000007600    0.0000013500   -0.0000506000
  -0.0000039100   -0.0000037900   -0.0011353900
  -0.0000008200    0.0000005900   -0.0000502600
   0.0000052400   -0.0000014900   -0.0011353900
  -0.0000007900   -0.0000013300   -0.0000506000
   0.0000063700   -0.0000794300    0.0041898800
   0.0000009300    0.0000004100   -0.0000502600
  -0.0000001000   -0.0000010100   -0.0000502600
  -0.0000074000   -0.0000807900    0.0041899800
  -0.0274778500   -0.0158651000   -0.0303462100
   0.0274785100   -0.0158639600   -0.0303462100
   0.0001841500    0.0000737900    0.0097499800
  -0.0001846700    0.0000740000    0.0097494200
  -0.0011717200    0.0006765500    0.0086327600
  -0.0000006600    0.0317290700   -0.0303462100
   0.0011717700    0.0006764700    0.0086327600
   0.0000000000    0.0002096800    0.0101229900
  -0.0001815900   -0.0001048400    0.0101229900
  -0.0001559800    0.0001225900    0.0097499800
   0.0001564200    0.0001229300    0.0097494200
   0.0001815900   -0.0001048400    0.0101229900
  -0.0000000400   -0.0013530200    0.0086327600
   0.0000282500   -0.0001969200    0.0097494200
  -0.0000000000    0.0000000000    0.0098980000
  -0.0000281700   -0.0001963700    0.0097499800
   0.0265807300    0.0153457700   -0.0497485900
  -0.0265801900    0.0153467000   -0.0497485900
  -0.0002003200   -0.0000799100   -0.0105478500
   0.0001997800   -0.0000798200   -0.0105467300
   0.0011613100   -0.0006703600   -0.0116827800
  -0.0000005400   -0.0306924700   -0.0497485900
  -0.0011612100   -0.0006705500   -0.0116827800
   0.0000000800   -0.0002073700   -0.0101975400
   0.0001795500    0.0001037500   -0.0101975400
   0.0001693600   -0.0001335300   -0.0105478500
  -0.0001690200   -0.0001331000   -0.0105467300
  -0.0001796300    0.0001036200   -0.0101975400
  -0.0000001100    0.0013409100   -0.0116827800
  -0.0000307600    0.0002129200   -0.0105467300
   0.0000000000   -0.0000000000   -0.0104165600
   0.0000309600    0.0002134300   -0.0105478500

17   
  0.0100000000000000   0.0000000000000000   0.0000000000000000
   0.0368034900    0.0138963900    0.0274958800
   0.0013876100    0.0004697500    0.0001915900
   0.0013512900   -0.0006971400   -0.0001931500
   0.0360319100   -0.0137019700   -0.0265578800
  -0.0033061800   -0.0001022400   -0.0000104900
   0.0006455800   -0.0006895600    0.0000269000
   0.0000715300   -0.0001239700   -0.0000054700
   0.0006337500    0.0004356700   -0.0000322500
   0.0000774600   -0.0001178900    0.0001746600
   0.0000766500   -0.0001226800   -0.0001857100
   0.0009837800    0.0010806700   -0.0001615800
   0.0009882200   -0.0013291600    0.0001640600
   0.0007811000   -0.0024861500    0.0011663300
   0.0000732900   -0.0001222800   -0.0000024800
   0.0007465700    0.0022131600   -0.0011660600
   0.0125192200   -0.0000582300   -0.0000320000
  -0.0982644900   -0.0002992700    0.0092445100
   0.0078361400    0.0002241900    0.0106565900
  -0.0003393900    0.0003079700    0.0101679600
   0.0076575700    0.0003852700    0.0096728400
   0.0013423100   -0.0034517300    0.0101635600
   0.0013380100    0.0041047500    0.0101533600
   0.0000698400    0.0001386600    0.0099498600
   0.0000764000    0.0004749800    0.0103723300
   0.0001203900    0.0005717900    0.0101487400
   0.0003648200    0.0003076000    0.0101612400
   0.0001179000    0.0000429100    0.0101743000
   0.0003645900    0.0003089600    0.0101600300
   0.0013339000   -0.0033205900    0.0106527900
   0.0000711800    0.0004746300    0.0101151600
   0.0000740900    0.0001374500    0.0102039600
   0.0013477200    0.0039161600    0.0096586100
  -0.0033907000   -0.0001839300   -0.0101794900
   0.0005511700   -0.0011524000   -0.0083869800
  -0.0006598400   -0.0001836000   -0.0101603600
   0.0005537400    0.0007978800   -0.0119226200
  -0.0014227400   -0.0022811700   -0.0119868300
  -0.0014460400    0.0019647400   -0.0083081600
  -0.0004812700   -0.0001874100   -0.0101301300
  -0.0004776400   -0.0001776200   -0.0101848700
  -0.0009173000   -0.0003308400   -0.0103004900
  -0.0004695500   -0.0001869500   -0.0101555700
  -0.0009174000   -0.0000331900   -0.0100164100
  -0.0004705400   -0.0001816100   -0.0101582200
  -0.0014381500   -0.0003544500   -0.0102346300
  -0.0004816200   -0.0001777500   -0.0101101400
  -0.0004784100   -0.0001897000   -0.0102029100
  -0.0014299400   -0.0000100800   -0.0100903400

17   
 -0.0100000000000000   0.0000000000000000   0.0000000000000000
  -0.0354489300   -0.0136975300   -0.0265479000
  -0.0007758700   -0.0006983300   -0.0001923500
  -0.0008125200    0.0004682600    0.0001924600
  -0.0362355300    0.0139004000    0.0275067900
   0.0038801600   -0.0001026700   -0.0000093700
  -0.0000578700    0.0004341400   -0.0000307700
   0.0005038300   -0.0001246400   -0.0000043400
  -0.0000695800   -0.0006899500    0.0000279400
   0.0004984400   -0.0001248100   -0.0001855800
   0.0004976100   -0.0001181300    0.0001767800
  -0.0004130400   -0.0013301500    0.0001652600
  -0.0004085300    0.0010789100   -0.0001602100
  -0.0001711900    0.0022122200   -0.0011656700
   0.0005035200   -0.0001237000   -0.0000015700
  -0.0002063000   -0.0024877100    0.0011688300
  -0.0119454200   -0.0000575000   -0.0000316000
   0.0989808400   -0.0002588500    0.0091740900
  -0.0071038100    0.0003835700    0.0096743400
   0.0008940600    0.0003065600    0.0101694400
  -0.0072823800    0.0002239100    0.0106573700
  -0.0007836500    0.0041035900    0.0101547400
  -0.0007880700   -0.0034527800    0.0101641800
   0.0004772400    0.0004739800    0.0103738300
   0.0004837900    0.0001365300    0.0099501700
   0.0004367600    0.0000420700    0.0101763400
   0.0001887200    0.0003064200    0.0101618900
   0.0004341600    0.0005699700    0.0101494900
   0.0001896300    0.0003082900    0.0101612400
  -0.0007934800    0.0039152400    0.0096594300
   0.0004796400    0.0001360600    0.0102045700
   0.0004813900    0.0004737500    0.0101156700
  -0.0007777600   -0.0033209100    0.0106530100
   0.0022508400   -0.0001852500   -0.0101794000
  -0.0016943600    0.0007962100   -0.0119196100
  -0.0004783900   -0.0001850600   -0.0101594000
  -0.0016913800   -0.0011533700   -0.0083861700
   0.0003072500    0.0019630600   -0.0083076200
   0.0002829100   -0.0022814200   -0.0119844900
  -0.0006621100   -0.0001777300   -0.0101848500
  -0.0006583800   -0.0001895900   -0.0101276600
  -0.0002215000   -0.0000346500   -0.0100152800
  -0.0006698300   -0.0001880700   -0.0101546100
  -0.0002217700   -0.0003320200   -0.0103002800
  -0.0006694300   -0.0001824800   -0.0101570700
   0.0002900200   -0.0000110100   -0.0100899100
  -0.0006614700   -0.0001908300   -0.0101984200
  -0.0006589400   -0.0001789400   -0.0101111800
   0.0003007100   -0.0003550900   -0.0102325500

17   
 -0.0050000000000000   0.0086602540378444   0.0000000000000000
  -0.0058813300    0.0104373600   -0.0000325000
  -0.0011001200   -0.0001223600   -0.0001609700
   0.0006014100    0.0004701900    0.0000271500
  -0.0301172100    0.0244968200    0.0275066500
   0.0020890000    0.0014861900    0.0011674100
   0.0009847500    0.0010867800    0.0001650100
   0.0004002000   -0.0003099000   -0.0000052700
  -0.0007723000    0.0005324800    0.0001915600
   0.0003978400   -0.0003108500   -0.0000028500
   0.0003908700   -0.0003078900    0.0001760700
  -0.0003665500   -0.0001021100   -0.0000319900
   0.0002554500    0.0010845500   -0.0001935800
  -0.0019625400   -0.0008929900   -0.0011664400
   0.0003964200   -0.0003056600   -0.0001860900
   0.0020693700   -0.0032465600   -0.0000097900
  -0.0058238800    0.0376246400   -0.0265610000
   0.0501069100   -0.0847308400    0.0092219400
  -0.0033839200   -0.0005734900    0.0096602500
   0.0005870200    0.0002970100    0.0101747500
  -0.0035410700   -0.0006764100    0.0101544600
  -0.0034303500    0.0068903800    0.0106561100
   0.0028923200    0.0030302900    0.0106517900
   0.0002319500    0.0003782000    0.0101599700
   0.0005271400    0.0002076700    0.0099494300
   0.0005856900   -0.0002300800    0.0101691100
   0.0002346200    0.0000431600    0.0101151200
   0.0001279500    0.0000346900    0.0101481300
   0.0002333200    0.0000458900    0.0103733800
  -0.0034785700    0.0066558800    0.0096723600
   0.0005260800    0.0002114200    0.0102036600
   0.0002329500    0.0003796300    0.0101602800
   0.0030005300    0.0031060800    0.0101634600
   0.0008418200   -0.0026270800   -0.0101794600
  -0.0002889600   -0.0010157900   -0.0100903800
  -0.0005229100   -0.0005618800   -0.0100158400
  -0.0019898500   -0.0020187700   -0.0083087600
  -0.0002891500    0.0012691300   -0.0083863900
   0.0000155400   -0.0008528800   -0.0102331400
  -0.0006196500   -0.0000998600   -0.0101577600
  -0.0006085700   -0.0001077900   -0.0101285000
  -0.0005217800   -0.0002633900   -0.0101593500
  -0.0006175100   -0.0001103900   -0.0101118100
  -0.0002660800   -0.0004135400   -0.0103005500
  -0.0006195100   -0.0001090700   -0.0101848800
  -0.0019789600    0.0002969400   -0.0119211200
  -0.0006082000   -0.0001040200   -0.0101994800
  -0.0006155700   -0.0000967200   -0.0101544900
   0.0016754000    0.0001249700   -0.0119856900

17   
  0.0050000000000000  -0.0086602540378444   0.0000000000000000
   0.0063482400   -0.0107461700   -0.0000323400
   0.0016836700   -0.0001249100    0.0001651500
  -0.0000221300   -0.0006994200   -0.0000316400
   0.0299209800   -0.0242877200   -0.0265579100
  -0.0015050000   -0.0016861300   -0.0011652300
  -0.0004058600   -0.0013254700   -0.0001606800
   0.0001818700    0.0000679500   -0.0000051300
   0.0013185500   -0.0007536500   -0.0001933800
   0.0001806400    0.0000658300   -0.0000027300
   0.0001832500    0.0000627000   -0.0001848600
   0.0009582000   -0.0001468200    0.0000268200
   0.0003250100   -0.0013699300    0.0001913400
   0.0025822500    0.0006340700    0.0011665200
   0.0001798900    0.0000588500    0.0001753900
  -0.0015260600    0.0029809000   -0.0000100100
   0.0064062800   -0.0387659000    0.0275093500
  -0.0484484600    0.0859786500    0.0092160800
   0.0039446400    0.0012059600    0.0106528500
  -0.0000309900    0.0003105700    0.0101494400
   0.0040643400    0.0012635100    0.0101639900
   0.0038986800   -0.0061249700    0.0096716200
  -0.0023132000   -0.0024264800    0.0096592000
   0.0003182300    0.0002294900    0.0101593800
   0.0000304700    0.0003952600    0.0103724700
  -0.0000313200    0.0008403400    0.0101689300
   0.0003208800    0.0005680800    0.0102033000
   0.0004258700    0.0005764500    0.0101745200
   0.0003184000    0.0005703200    0.0099499500
   0.0041284500   -0.0061993800    0.0106558800
   0.0000278900    0.0003986400    0.0101154500
   0.0003200400    0.0002293300    0.0101606900
  -0.0024823100   -0.0025113700    0.0101538600
  -0.0019796400    0.0022599100   -0.0101798000
  -0.0008568700    0.0006558700   -0.0102336700
  -0.0006152800    0.0001929400   -0.0103013000
   0.0008200500    0.0016052700   -0.0119871700
  -0.0008580000   -0.0016474500   -0.0119203800
  -0.0011486400    0.0004744400   -0.0100902600
  -0.0005212100   -0.0002697200   -0.0101575700
  -0.0005294300   -0.0002669500   -0.0101842200
  -0.0006131600   -0.0001038800   -0.0101593100
  -0.0005191500   -0.0002575000   -0.0102022200
  -0.0008732900    0.0000436300   -0.0100163100
  -0.0005221700   -0.0002570200   -0.0101285100
   0.0008313500   -0.0006692300   -0.0083857100
  -0.0005304400   -0.0002633500   -0.0101095400
  -0.0005166000   -0.0002680800   -0.0101550800
  -0.0028689200   -0.0004974200   -0.0083072100

17   
  0.0000000000000000   0.0000000000000000   0.0100000000000000
   0.0271230800    0.0156594600    0.0404669500
   0.0001816900    0.0000862100    0.0004013600
  -0.0001812700    0.0000859000    0.0004013700
  -0.0271230300    0.0156595500    0.0404669500
   0.0000004600    0.0002863200    0.0015222000
   0.0001650300    0.0001140300    0.0004013700
   0.0000000000   -0.0000000000    0.0002623000
  -0.0001655000    0.0001142400    0.0004013600
   0.0000045400    0.0000032100    0.0000321900
  -0.0000050500    0.0000023300    0.0000321900
  -0.0000161900   -0.0002004500    0.0004013600
   0.0000162400   -0.0001999300    0.0004013700
   0.0002477300   -0.0001435600    0.0015222000
   0.0000005100   -0.0000055400    0.0000321900
  -0.0002481900   -0.0001427600    0.0015222000
  -0.0000000500   -0.0313190100    0.0404669500
   0.0000000000   -0.0000000000   -0.1165175800
  -0.0005046700   -0.0002869000    0.0070868900
   0.0000002000    0.0000120200    0.0094191100
   0.0005040800   -0.0002865700    0.0070875200
   0.0005008000   -0.0002936100    0.0070868900
  -0.0005002100   -0.0002932600    0.0070875200
   0.0000421500    0.0000247500    0.0101943700
  -0.0000425100    0.0000241200    0.0101943700
  -0.0000105100   -0.0000058300    0.0094191100
  -0.0000000200    0.0002468200    0.0101925100
   0.0000103000   -0.0000061800    0.0094191100
   0.0000003600   -0.0000488800    0.0101943700
  -0.0000038700    0.0005798300    0.0070875200
   0.0002137600   -0.0001233900    0.0101925100
  -0.0002137400   -0.0001234300    0.0101925100
   0.0000038800    0.0005805100    0.0070868900
   0.0000000000    0.0000000000    0.0042456700
   0.0017640400   -0.0010953500   -0.0094673300
   0.0000001100   -0.0001649600   -0.0096533700
  -0.0017648600   -0.0010953300   -0.0094683700
   0.0000665800    0.0020753800   -0.0094673300
  -0.0000661600    0.0020760800   -0.0094683700
   0.0000451600    0.0000266000   -0.0104417500
  -0.0000456200    0.0000258100   -0.0104417500
   0.0001428000    0.0000825800   -0.0096533700
  -0.0000000500    0.0000369400   -0.0104371100
  -0.0001429100    0.0000823800   -0.0096533700
   0.0000004600   -0.0000524100   -0.0104417500
   0.0018310200   -0.0009807500   -0.0094683700
   0.0000320200   -0.0000184300   -0.0104371100
  -0.0000319700   -0.0000185100   -0.0104371100
  -0.0018306200   -0.0009800300   -0.0094673300

17   
  0.0000000000000000   0.0000000000000000  -0.0100000000000000
  -0.0261808900   -0.0151164500   -0.0396235800
  -0.0001393200   -0.0000890000   -0.0003944400
   0.0001395000   -0.0000879900   -0.0003944500
   0.0261816800   -0.0151150900   -0.0396235800
  -0.0000006500   -0.0003280600   -0.0015247300
  -0.0001459500   -0.0000768200   -0.0003944500
  -0.0000000000    0.0000000000   -0.0002552100
   0.0001467400   -0.0000761600   -0.0003944400
  -0.0000118000   -0.0000072200   -0.0000402200
   0.0000121500   -0.0000066100   -0.0000402200
  -0.0000074200    0.0001651600   -0.0003944400
   0.0000064500    0.0001648000   -0.0003944500
  -0.0002837800    0.0001646000   -0.0015247300
  -0.0000003500    0.0000138300   -0.0000402200
   0.0002844400    0.0001634700   -0.0015247300
  -0.0000007800    0.0302315400   -0.0396235800
   0.0000000000   -0.0000000000    0.1341693000
   0.0004792100    0.0002922500    0.0131943600
  -0.0000004800   -0.0000170000    0.0108908600
  -0.0004792000    0.0002921200    0.0131932500
  -0.0004927000    0.0002688800    0.0131943600
   0.0004925900    0.0002689400    0.0131932500
  -0.0000464700   -0.0000272900    0.0101264800
   0.0000468700   -0.0000266000    0.0101264800
   0.0000149600    0.0000080900    0.0108908600
  -0.0000001000   -0.0002429200    0.0101257400
  -0.0000144900    0.0000089100    0.0108908600
  -0.0000004000    0.0000538900    0.0101264800
  -0.0000133900   -0.0005610600    0.0131932500
  -0.0002103300    0.0001215500    0.0101257400
   0.0002104300    0.0001213800    0.0101257400
   0.0000135000   -0.0005611300    0.0131943600
   0.0000000000   -0.0000000000   -0.0242684800
  -0.0017694100    0.0011108600   -0.0108456100
  -0.0000005600    0.0001647800   -0.0106562800
   0.0017695400    0.0011104700   -0.0108450100
  -0.0000773200   -0.0020877900   -0.0108456100
   0.0000769300   -0.0020877100   -0.0108450100
  -0.0000450100   -0.0000265400   -0.0098794500
   0.0000454900   -0.0000257100   -0.0098794500
  -0.0001424200   -0.0000828700   -0.0106562800
  -0.0000001400   -0.0000287800   -0.0098754400
   0.0001429800   -0.0000819000   -0.0106562800
  -0.0000004800    0.0000522500   -0.0098794500
  -0.0018464700    0.0009772300   -0.0108450100
  -0.0000248600    0.0000145100   -0.0098754400
   0.0000250000    0.0000142700   -0.0098754400
   0.0018467400    0.0009769300   -0.0108456100

33   
  0.0100000000000000   0.0000000000000000   0.0000000000000000
   0.0368141300    0.0139033000   -0.0275172300
   0.0013872200    0.0004693900   -0.0001980100
   0.0013501700   -0.0006974000    0.0001868000
   0.0360266400   -0.0136975800    0.0265440600
  -0.0033070600   -0.0001021300    0.0000038000
   0.0006447400   -0.0006898600   -0.0000335200
   0.0000708000   -0.0001239200   -0.0000012000
   0.0006336600    0.0004353500    0.0000251400
   0.0000772200   -0.0001184000   -0.0001826400
   0.0000754600   -0.0001227800    0.0001798100
   0.0009833800    0.0010803200    0.0001542600
   0.0009874900   -0.0013294300   -0.0001718800
   0.0007804100   -0.0024866300   -0.0011746900
   0.0000725700   -0.0001223100   -0.0000042500
   0.0007458600    0.0022124600    0.0011591600
   0.0125185100   -0.0000560400    0.0000257900
  -0.0025437100    0.0003048000    0.0101838200
   0.0013971400   -0.0006635700    0.0083899200
   0.0001855800    0.0003050600    0.0101630400
   0.0014005200    0.0012873700    0.0119244100
  -0.0005767000   -0.0017918900    0.0119900300
  -0.0006007700    0.0024535700    0.0083111600
   0.0003644500    0.0003018500    0.0101322500
   0.0003686300    0.0003124900    0.0101876600
  -0.0000712700    0.0001586200    0.0103045200
   0.0003761600    0.0003022700    0.0101577500
  -0.0000710400    0.0004555100    0.0100186700
   0.0003761700    0.0003075300    0.0101611900
  -0.0005923700    0.0001346700    0.0102374300