mesh: [    20,    20,    20 ]
nqpoint: 4000   
reciprocal_lattice:
- [   0.30120482,   0.17390068,   0.00000000 ] # a*
- [   0.00000000,   0.34780137,   0.00000000 ] # b*
- [   0.00000000,   0.00000000,   0.06666667 ] # c*
natom:   3      
lattice:
- [     3.320000000000000,     0.000000000000000,     0.000000000000000 ] # a
- [    -1.660000000000000,     2.875204340564340,     0.000000000000000 ] # b
- [     0.000000000000000,     0.000000000000000,    15.000000000000000 ] # c
points:
- symbol: Mo # 1
  coordinates: [  0.656360472503062,  0.328183184520867,  0.500455147105625 ]
  mass: 95.960000
- symbol: Se # 2
  coordinates: [  0.989670353345120,  0.994833692708318,  0.389220100150981 ]
  mass: 78.960000
- symbol: Se # 3
  coordinates: [  0.989712767146362,  0.994854919268087,  0.611690486401364 ]
  mass: 78.960000

phonon:
- q-position: [    0.0250000,    0.0250000,    0.0250000 ]
  distance_from_gamma:  0.015152183
  weight: 2    
  band:
  - # 1
    frequency:     0.2492254153
  - # 2
    frequency:     0.4397468340
  - # 3
    frequency:     0.6906977910
  - # 4
    frequency:     4.8815905352
  - # 5
    frequency:     4.9139752218
  - # 6
    frequency:     7.0920961095
  - # 7
    frequency:     8.3558242813
  - # 8
    frequency:     8.3604968478
  - # 9
    frequency:    10.1915981356

- q-position: [    0.0750000,    0.0250000,    0.0250000 ]
  distance_from_gamma:  0.031394662
  weight: 2    
  band:
  - # 1
    frequency:     0.5500201528
  - # 2
    frequency:     0.9091187666
  - # 3
    frequency:     1.4252046607
  - # 4
    frequency:     4.9109357782
  - # 5
    frequency:     5.0395741920
  - # 6
    frequency:     6.9980237071
  - # 7
    frequency:     8.3544671189
  - # 8
    frequency:     8.3741420946
  - # 9
    frequency:    10.1067446033

- q-position: [    0.1250000,    0.0250000,    0.0250000 ]
  distance_from_gamma:  0.048440582
  weight: 2    
  band:
  - # 1
    frequency:     0.9281164306
  - # 2
    frequency:     1.3842071631
  - # 3
    frequency:     2.1715680371
  - # 4
    frequency:     4.9594562576
  - # 5
    frequency:     5.2319379533
  - # 6
    frequency:     6.8493198735
  - # 7
    frequency:     8.3485180941
  - # 8
    frequency:     8.3934977103
  - # 9
    frequency:     9.9611811640

- q-position: [    0.1750000,    0.0250000,    0.0250000 ]
  distance_from_gamma:  0.065667222
  weight: 2    
  band:
  - # 1
    frequency:     1.3710859394
  - # 2
    frequency:     1.8334473623
  - # 3
    frequency:     2.8799207688
  - # 4
    frequency:     5.0196649307
  - # 5
    frequency:     5.4515602007
  - # 6
    frequency:     6.6738809503
  - # 7
    frequency:     8.3348364837
  - # 8
    frequency:     8.4152767823
  - # 9
    frequency:     9.7663225587

- q-position: [    0.2250000,    0.0250000,    0.0250000 ]
  distance_from_gamma:  0.082962083
  weight: 2    
  band:
  - # 1
    frequency:     1.8564169432
  - # 2
    frequency:     2.2366471810
  - # 3
    frequency:     3.5161962881
  - # 4
    frequency:     5.0839863488
  - # 5
    frequency:     5.6610429467
  - # 6
    frequency:     6.5038133265
  - # 7
    frequency:     8.3128310662
  - # 8
    frequency:     8.4395300977
  - # 9
    frequency:     9.5383238045

- q-position: [    0.2750000,    0.0250000,    0.0250000 ]
  distance_from_gamma:  0.100289876
  weight: 2    
  band:
  - # 1
    frequency:     2.3581840352
  - # 2
    frequency:     2.5765177326
  - # 3
    frequency:     4.0436702057
  - # 4
    frequency:     5.1455309987
  - # 5
    frequency:     5.8289074550
  - # 6
    frequency:     6.3732613343
  - # 7
    frequency:     8.2855564125
  - # 8
    frequency:     8.4676704384
  - # 9
    frequency:     9.2983563050

- q-position: [    0.3250000,    0.0250000,    0.0250000 ]
  distance_from_gamma:  0.117636049
  weight: 2    
  band:
  - # 1
    frequency:     2.8402968120
  - # 2
    frequency:     2.8487005120
  - # 3
    frequency:     4.4282546006
  - # 4
    frequency:     5.1987373312
  - # 5
    frequency:     5.9310358220
  - # 6
    frequency:     6.3115405847
  - # 7
    frequency:     8.2585100198
  - # 8
    frequency:     8.4996770817
  - # 9
    frequency:     9.0722861687

- q-position: [    0.3750000,    0.0250000,    0.0250000 ]
  distance_from_gamma:  0.134993518
  weight: 2    
  band:
  - # 1
    frequency:     3.0271437766
  - # 2
    frequency:     3.2889411345
  - # 3
    frequency:     4.6596196604
  - # 4
    frequency:     5.2398994005
  - # 5
    frequency:     5.9571160940
  - # 6
    frequency:     6.3230692052
  - # 7
    frequency:     8.2369156070
  - # 8
    frequency:     8.5321966107
  - # 9
    frequency:     8.8871819062

- q-position: [    0.4250000,    0.0250000,    0.0250000 ]
  distance_from_gamma:  0.152358422
  weight: 2    
  band:
  - # 1
    frequency:     3.1386738933
  - # 2
    frequency:     3.6292599867
  - # 3
    frequency:     4.7690561616
  - # 4
    frequency:     5.2671441820
  - # 5
    frequency:     5.9253734116
  - # 6
    frequency:     6.3710048873
  - # 7
    frequency:     8.2234356793
  - # 8
    frequency:     8.5586785131
  - # 9
    frequency:     8.7636335125

- q-position: [    0.4750000,    0.0250000,    0.0250000 ]
  distance_from_gamma:  0.169728479
  weight: 2    
  band:
  - # 1
    frequency:     3.1837762436
  - # 2
    frequency:     3.7975807994
  - # 3
    frequency:     4.8045685938
  - # 4
    frequency:     5.2792916849
  - # 5
    frequency:     5.8906811303
  - # 6
    frequency:     6.4032893639
  - # 7
    frequency:     8.2181306194
  - # 8
    frequency:     8.5719055765
  - # 9
    frequency:     8.7103245534

- q-position: [   -0.4750000,    0.0250000,    0.0250000 ]
  distance_from_gamma:  0.161042911
  weight: 2    
  band:
  - # 1
    frequency:     3.1676976629
  - # 2
    frequency:     3.7394232261
  - # 3
    frequency:     4.7924016743
  - # 4
    frequency:     5.2751663561
  - # 5
    frequency:     5.9040648434
  - # 6
    frequency:     6.3919631816
  - # 7
    frequency:     8.2203484819
  - # 8
    frequency:     8.5677807170
  - # 9
    frequency:     8.7282247471

- q-position: [   -0.4250000,    0.0250000,    0.0250000 ]
  distance_from_gamma:  0.143675210
  weight: 2    
  band:
  - # 1
    frequency:     3.0887077712
  - # 2
    frequency:     3.4751045240
  - # 3
    frequency:     4.7238051323
  - # 4
    frequency:     5.2552804280
  - # 5
    frequency:     5.9456612656
  - # 6
    frequency:     6.3465985933
  - # 7
    frequency:     8.2302665856
  - # 8
    frequency:     8.5476375812
  - # 9
    frequency:     8.8173077578

- q-position: [   -0.3750000,    0.0250000,    0.0250000 ]
  distance_from_gamma:  0.126313663
  weight: 2    
  band:
  - # 1
    frequency:     2.9395768566
  - # 2
    frequency:     3.0751609995
  - # 3
    frequency:     4.5586971351
  - # 4
    frequency:     5.2209204125
  - # 5
    frequency:     5.9532775394
  - # 6
    frequency:     6.3104072839
  - # 7
    frequency:     8.2483406829
  - # 8
    frequency:     8.5174389456
  - # 9
    frequency:     8.9738366232

- q-position: [   -0.3250000,    0.0250000,    0.0250000 ]
  distance_from_gamma:  0.108961213
  weight: 2    
  band:
  - # 1
    frequency:     2.6021961880
  - # 2
    frequency:     2.7136494209
  - # 3
    frequency:     4.2521270769
  - # 4
    frequency:     5.1734058122
  - # 5
    frequency:     5.8894061048
  - # 6
    frequency:     6.3333129183
  - # 7
    frequency:     8.2733042857
  - # 8
    frequency:     8.4844746611
  - # 9
    frequency:     9.1830157566

- q-position: [   -0.2750000,    0.0250000,    0.0250000 ]
  distance_from_gamma:  0.091623029
  weight: 2    
  band:
  - # 1
    frequency:     2.0994477448
  - # 2
    frequency:     2.4101210797
  - # 3
    frequency:     3.7934700695
  - # 4
    frequency:     5.1154450461
  - # 5
    frequency:     5.7521899432
  - # 6
    frequency:     6.4318380272
  - # 7
    frequency:     8.3010612548
  - # 8
    frequency:     8.4539371540
  - # 9
    frequency:     9.4198359222

- q-position: [   -0.2250000,    0.0250000,    0.0250000 ]
  distance_from_gamma:  0.074309098
  weight: 2    
  band:
  - # 1
    frequency:     1.5981872057
  - # 2
    frequency:     2.0370011032
  - # 3
    frequency:     3.2080167416
  - # 4
    frequency:     5.0517085093
  - # 5
    frequency:     5.5601943351
  - # 6
    frequency:     6.5861053565
  - # 7
    frequency:     8.3259674504
  - # 8
    frequency:     8.4275072384
  - # 9
    frequency:     9.6569752563

- q-position: [   -0.1750000,    0.0250000,    0.0250000 ]
  distance_from_gamma:  0.057041506
  weight: 2    
  band:
  - # 1
    frequency:     1.1253038518
  - # 2
    frequency:     1.6091084024
  - # 3
    frequency:     2.5324685780
  - # 4
    frequency:     4.9884930002
  - # 5
    frequency:     5.3415293814
  - # 6
    frequency:     6.7629221627
  - # 7
    frequency:     8.3435777944
  - # 8
    frequency:     8.4042975655
  - # 9
    frequency:     9.8706761463

- q-position: [   -0.1250000,    0.0250000,    0.0250000 ]
  distance_from_gamma:  0.039880494
  weight: 2    
  band:
  - # 1
    frequency:     0.7057879411
  - # 2
    frequency:     1.1452070773
  - # 3
    frequency:     1.8017433960
  - # 4
    frequency:     4.9331243454
  - # 5
    frequency:     5.1306761051
  - # 6
    frequency:     6.9287874013
  - # 7
    frequency:     8.3527356597
  - # 8
    frequency:     8.3833456880
  - # 9
    frequency:    10.0423009248

- q-position: [   -0.0750000,    0.0250000,    0.0250000 ]
  distance_from_gamma:  0.023065193
  weight: 2    
  band:
  - # 1
    frequency:     0.3597067738
  - # 2
    frequency:     0.6682004164
  - # 3
    frequency:     1.0514458750
  - # 4
    frequency:     4.8932088588
  - # 5
    frequency:     4.9669113695
  - # 6
    frequency:     7.0533289554
  - # 7
    frequency:     8.3556096989
  - # 8
    frequency:     8.3662421828
  - # 9
    frequency:    10.1581178140

- q-position: [   -0.0250000,    0.0250000,    0.0250000 ]
  distance_from_gamma:  0.008853327
  weight: 2    
  band:
  - # 1
    frequency:     0.1188440924
  - # 2
    frequency:     0.2573696241
  - # 3
    frequency:     0.4000898306
  - # 4
    frequency:     4.8764029216
  - # 5
    frequency:     4.8862532986
  - # 6
    frequency:     7.1120179674
  - # 7
    frequency:     8.3554974741
  - # 8
    frequency:     8.3577945023
  - # 9
    frequency:    10.2091828846

- q-position: [    0.0250000,    0.0750000,    0.0250000 ]
  distance_from_gamma:  0.031394662
  weight: 2    
  band:
  - # 1
    frequency:     0.5538549791
  - # 2
    frequency:     0.9123249431
  - # 3
    frequency:     1.4294478738
  - # 4
    frequency:     4.9122117094
  - # 5
    frequency:     5.0378592704
  - # 6
    frequency:     6.9979358032
  - # 7
    frequency:     8.3539956797
  - # 8
    frequency:     8.3737077590
  - # 9
    frequency:    10.1066906763

- q-position: [    0.0750000,    0.0750000,    0.0250000 ]
  distance_from_gamma:  0.045211453
  weight: 2    
  band:
  - # 1
    frequency:     0.8622827337
  - # 2
    frequency:     1.3277151455
  - # 3
    frequency:     2.0154310622
  - # 4
    frequency:     4.9514221178
  - # 5
    frequency:     5.1900672404
  - # 6
    frequency:     6.8793428533
  - # 7
    frequency:     8.3527496243
  - # 8
    frequency:     8.3864935791
  - # 9
    frequency:     9.9920312946

- q-position: [    0.1250000,    0.0750000,    0.0250000 ]
  distance_from_gamma:  0.060888054
  weight: 2    
  band:
  - # 1
    frequency:     1.2528277194
  - # 2
    frequency:     1.7754051241
  - # 3
    frequency:     2.6496673138
  - # 4
    frequency:     5.0078185509
  - # 5
    frequency:     5.3862400893
  - # 6
    frequency:     6.7195429259
  - # 7
    frequency:     8.3441984238
  - # 8
    frequency:     8.4039889919
  - # 9
    frequency:     9.8231927135

- q-position: [    0.1750000,    0.0750000,    0.0250000 ]
  distance_from_gamma:  0.077301124
  weight: 2    
  band:
  - # 1
    frequency:     1.6999473743
  - # 2
    frequency:     2.1979299198
  - # 3
    frequency:     3.2606505735
  - # 4
    frequency:     5.0740848276
  - # 5
    frequency:     5.5898447341
  - # 6
    frequency:     6.5475863501
  - # 7
    frequency:     8.3242702973
  - # 8
    frequency:     8.4266653766
  - # 9
    frequency:     9.6139291920

- q-position: [    0.2250000,    0.0750000,    0.0250000 ]
  distance_from_gamma:  0.094065941
  weight: 2    
  band:
  - # 1
    frequency:     2.1776609001
  - # 2
    frequency:     2.5663512212
  - # 3
    frequency:     3.7984769829
  - # 4
    frequency:     5.1430370013
  - # 5
    frequency:     5.7680869543
  - # 6
    frequency:     6.3969712370
  - # 7
    frequency:     8.2954473298
  - # 8
    frequency:     8.4539230309
  - # 9
    frequency:     9.3825981692

- q-position: [    0.2750000,    0.0750000,    0.0250000 ]
  distance_from_gamma:  0.111023276
  weight: 2    
  band:
  - # 1
    frequency:     2.6586776768
  - # 2
    frequency:     2.8627068047
  - # 3
    frequency:     4.2202313421
  - # 4
    frequency:     5.2083564166
  - # 5
    frequency:     5.8940220713
  - # 6
    frequency:     6.3012099624
  - # 7
    frequency:     8.2637609573
  - # 8
    frequency:     8.4851296438
  - # 9
    frequency:     9.1522116964

- q-position: [    0.3250000,    0.0750000,    0.0250000 ]
  distance_from_gamma:  0.128096695
  weight: 2    
  band:
  - # 1
    frequency:     3.0767557851
  - # 2
    frequency:     3.1133373986
  - # 3
    frequency:     4.4997249020
  - # 4
    frequency:     5.2653777316
  - # 5
    frequency:     5.9497424959
  - # 6
    frequency:     6.2792893437
  - # 7
    frequency:     8.2357664539
  - # 8
    frequency:     8.5182740164
  - # 9
    frequency:     8.9488948408

- q-position: [    0.3750000,    0.0750000,    0.0250000 ]
  distance_from_gamma:  0.145245267
  weight: 2    
  band:
  - # 1
    frequency:     3.2156545157
  - # 2
    frequency:     3.4940976012
  - # 3
    frequency:     4.6482815212
  - # 4
    frequency:     5.3113587562
  - # 5
    frequency:     5.9367070379
  - # 6
    frequency:     6.3136101163
  - # 7
    frequency:     8.2159450804
  - # 8
    frequency:     8.5485871015
  - # 9
    frequency:     8.7965157800

- q-position: [    0.4250000,    0.0750000,    0.0250000 ]
  distance_from_gamma:  0.162445194
  weight: 2    
  band:
  - # 1
    frequency:     3.2850721308
  - # 2
    frequency:     3.7450568210
  - # 3
    frequency:     4.7083758798
  - # 4
    frequency:     5.3428218575
  - # 5
    frequency:     5.8912013444
  - # 6
    frequency:     6.3562301546
  - # 7
    frequency:     8.2056582991
  - # 8
    frequency:     8.5692464537
  - # 9
    frequency:     8.7095897236

- q-position: [   -0.5250000,    0.0750000,    0.0250000 ]
  distance_from_gamma:  0.171059576
  weight: 2    
  band:
  - # 1
    frequency:     3.2964109765
  - # 2
    frequency:     3.7999217905
  - # 3
    frequency:     4.7166380720
  - # 4
    frequency:     5.3502448889
  - # 5
    frequency:     5.8764987317
  - # 6
    frequency:     6.3672789231
  - # 7
    frequency:     8.2043744227
  - # 8
    frequency:     8.5744397976
  - # 9
    frequency:     8.6923573335

- q-position: [   -0.4750000,    0.0750000,    0.0250000 ]
  distance_from_gamma:  0.153839886
  weight: 2    
  band:
  - # 1
    frequency:     3.2524768843
  - # 2
    frequency:     3.6395012697
  - # 3
    frequency:     4.6815244020
  - # 4
    frequency:     5.3293057399
  - # 5
    frequency:     5.9138610693
  - # 6
    frequency:     6.3381178734
  - # 7
    frequency:     8.2117102376
  - # 8
    frequency:     8.5626495002
  - # 9
    frequency:     8.7450927192

- q-position: [   -0.4250000,    0.0750000,    0.0250000 ]
  distance_from_gamma:  0.136663352
  weight: 2    
  band:
  - # 1
    frequency:     3.1465476106
  - # 2
    frequency:     3.3120939805
  - # 3
    frequency:     4.5802193446
  - # 4
    frequency:     5.2898053224
  - # 5
    frequency:     5.9502534273
  - # 6
    frequency:     6.2940782652
  - # 7
    frequency:     8.2280174541
  - # 8
    frequency:     8.5373680797
  - # 9
    frequency:     8.8665885766

- q-position: [   -0.3750000,    0.0750000,    0.0250000 ]
  distance_from_gamma:  0.119548575
  weight: 2    
  band:
  - # 1
    frequency:     2.8831528072
  - # 2
    frequency:     2.9688295409
  - # 3
    frequency:     4.3694885010
  - # 4
    frequency:     5.2380166238
  - # 5
    frequency:     5.9312678367
  - # 6
    frequency:     6.2831766165
  - # 7
    frequency:     8.2529122511
  - # 8
    frequency:     8.5051318890
  - # 9
    frequency:     9.0479939037

- q-position: [   -0.3250000,    0.0750000,    0.0250000 ]
  distance_from_gamma:  0.102526489
  weight: 2    
  band:
  - # 1
    frequency:     2.4052548193
  - # 2
    frequency:     2.7111588735
  - # 3
    frequency:     4.0188298653
  - # 4
    frequency:     5.1763905049
  - # 5
    frequency:     5.8394703745
  - # 6
    frequency:     6.3418599039
  - # 7
    frequency:     8.2834234100
  - # 8
    frequency:     8.4720550981
  - # 9
    frequency:     9.2692030253

- q-position: [   -0.2750000,    0.0750000,    0.0250000 ]
  distance_from_gamma:  0.085652372
  weight: 2    
  band:
  - # 1
    frequency:     1.9131706546
  - # 2
    frequency:     2.3778634889
  - # 3
    frequency:     3.5367223932
  - # 4
    frequency:     5.1085382717
  - # 5
    frequency:     5.6848963724
  - # 6
    frequency:     6.4680132614
  - # 7
    frequency:     8.3138852146
  - # 8
    frequency:     8.4417543516
  - # 9
    frequency:     9.5039725078

- q-position: [   -0.2250000,    0.0750000,    0.0250000 ]
  distance_from_gamma:  0.069034816
  weight: 2    
  band:
  - # 1
    frequency:     1.4360820765
  - # 2
    frequency:     1.9820154810
  - # 3
    frequency:     2.9590255915
  - # 4
    frequency:     5.0400227604
  - # 5
    frequency:     5.4907091335
  - # 6
    frequency:     6.6331300470
  - # 7
    frequency:     8.3378543445
  - # 8
    frequency:     8.4157329211
  - # 9
    frequency:     9.7270738406

- q-position: [   -0.1750000,    0.0750000,    0.0250000 ]
  distance_from_gamma:  0.052916082
  weight: 2    
  band:
  - # 1
    frequency:     1.0016177173
  - # 2
    frequency:     1.5466262803
  - # 3
    frequency:     2.3309331484
  - # 4
    frequency:     4.9776873322
  - # 5
    frequency:     5.2868077064
  - # 6
    frequency:     6.8028033375
  - # 7
    frequency:     8.3508152774
  - # 8
    frequency:     8.3950436652
  - # 9
    frequency:     9.9176658552

- q-position: [   -0.1250000,    0.0750000,    0.0250000 ]
  distance_from_gamma:  0.037937403
  weight: 2    
  band:
  - # 1
    frequency:     0.6403208510
  - # 2
    frequency:     1.1109692268
  - # 3
    frequency:     1.7079801909
  - # 4
    frequency:     4.9289073237
  - # 5
    frequency:     5.1080075940
  - # 6
    frequency:     6.9453079165
  - # 7
    frequency:     8.3535441394
  - # 8
    frequency:     8.3801829183
  - # 9
    frequency:    10.0597456742

- q-position: [   -0.0750000,    0.0750000,    0.0250000 ]
  distance_from_gamma:  0.026138293
  weight: 2    
  band:
  - # 1
    frequency:     0.3984126941
  - # 2
    frequency:     0.7658197454
  - # 3
    frequency:     1.1936911937
  - # 4
    frequency:     4.9007071065
  - # 5
    frequency:     4.9903484218
  - # 6
    frequency:     7.0345057643
  - # 7
    frequency:     8.3535253269
  - # 8
    frequency:     8.3696187478
  - # 9
    frequency:    10.1420122817

- q-position: [   -0.0250000,    0.0750000,    0.0250000 ]
  distance_from_gamma:  0.023065193
  weight: 2    
  band:
  - # 1
    frequency:     0.3678085545
  - # 2
    frequency:     0.6769415163
  - # 3
    frequency:     1.0565584109
  - # 4
    frequency:     4.8957099079
  - # 5
    frequency:     4.9637952747
  - # 6
    frequency:     7.0532860026
  - # 7
    frequency:     8.3545545983
  - # 8
    frequency:     8.3660921331
  - # 9
    frequency:    10.1580554915

- q-position: [    0.0250000,    0.1250000,    0.0250000 ]
  distance_from_gamma:  0.048440582
  weight: 2    
  band:
  - # 1
    frequency:     0.9313682567
  - # 2
    frequency:     1.3876532365
  - # 3
    frequency:     2.1768499771
  - # 4
    frequency:     4.9610075217
  - # 5
    frequency:     5.2298912885
  - # 6
    frequency:     6.8489625492
  - # 7
    frequency:     8.3479493158
  - # 8
    frequency:     8.3925520062
  - # 9
    frequency:     9.9610634264

- q-position: [    0.0750000,    0.1250000,    0.0250000 ]
  distance_from_gamma:  0.060888054
  weight: 2    
  band:
  - # 1
    frequency:     1.2529418704
  - # 2
    frequency:     1.7742329357
  - # 3
    frequency:     2.6513961480
  - # 4
    frequency:     5.0084832493
  - # 5
    frequency:     5.3856106181
  - # 6
    frequency:     6.7192934833
  - # 7
    frequency:     8.3444638784
  - # 8
    frequency:     8.4036593605
  - # 9
    frequency:     9.8231565580

- q-position: [    0.1250000,    0.1250000,    0.0250000 ]
  distance_from_gamma:  0.075319647
  weight: 2    
  band:
  - # 1
    frequency:     1.6453690744
  - # 2
    frequency:     2.2092295024
  - # 3
    frequency:     3.1469622980
  - # 4
    frequency:     5.0734442326
  - # 5
    frequency:     5.5622618252
  - # 6
    frequency:     6.5617863467
  - # 7
    frequency:     8.3306288595
  - # 8
    frequency:     8.4206690570
  - # 9
    frequency:     9.6399134769

- q-position: [    0.1750000,    0.1250000,    0.0250000 ]
  distance_from_gamma:  0.090794120
  weight: 2    
  band:
  - # 1
    frequency:     2.0810313580
  - # 2
    frequency:     2.6188180972
  - # 3
    frequency:     3.6116529114
  - # 4
    frequency:     5.1491880940
  - # 5
    frequency:     5.7289797415
  - # 6
    frequency:     6.4066080804
  - # 7
    frequency:     8.3023985629
  - # 8
    frequency:     8.4461145165
  - # 9
    frequency:     9.4271073683

- q-position: [    0.2250000,    0.1250000,    0.0250000 ]
  distance_from_gamma:  0.106859367
  weight: 2    
  band:
  - # 1
    frequency:     2.5334909988
  - # 2
    frequency:     2.9605387740
  - # 3
    frequency:     4.0022732802
  - # 4
    frequency:     5.2286313251
  - # 5
    frequency:     5.8590317267
  - # 6
    frequency:     6.2879282611
  - # 7
    frequency:     8.2655513864
  - # 8
    frequency:     8.4772896081
  - # 9
    frequency:     9.2045895018

- q-position: [    0.2750000,    0.1250000,    0.0250000 ]
  distance_from_gamma:  0.123284651
  weight: 2    
  band:
  - # 1
    frequency:     2.9744013881
  - # 2
    frequency:     3.2130332547
  - # 3
    frequency:     4.2867238390
  - # 4
    frequency:     5.3054863153
  - # 5
    frequency:     5.9317991106
  - # 6
    frequency:     6.2324149399
  - # 7
    frequency:     8.2283671683
  - # 8
    frequency:     8.5112813867
  - # 9
    frequency:     8.9956367019

- q-position: [    0.3250000,    0.1250000,    0.0250000 ]
  distance_from_gamma:  0.139943257
  weight: 2    
  band:
  - # 1
    frequency:     3.3628497106
  - # 2
    frequency:     3.3794603697
  - # 3
    frequency:     4.4601274926
  - # 4
    frequency:     5.3753955272
  - # 5
    frequency:     5.9382375312
  - # 6
    frequency:     6.2392059165
  - # 7
    frequency:     8.1979123133
  - # 8
    frequency:     8.5443664445
  - # 9
    frequency:     8.8240535039

- q-position: [    0.3750000,    0.1250000,    0.0250000 ]
  distance_from_gamma:  0.156760818
  weight: 2    
  band:
  - # 1
    frequency:     3.4558410381
  - # 2
    frequency:     3.6695302776
  - # 3
    frequency:     4.5468772248
  - # 4
    frequency:     5.4347305206
  - # 5
    frequency:     5.8936570787
  - # 6
    frequency:     6.2745709239
  - # 7
    frequency:     8.1782309712
  - # 8
    frequency:     8.5708455152
  - # 9
    frequency:     8.7084658190

- q-position: [    0.4250000,    0.1250000,    0.0250000 ]
  distance_from_gamma:  0.173691168
  weight: 2    
  band:
  - # 1
    frequency:     3.4841121632
  - # 2
    frequency:     3.8153828546
  - # 3
    frequency:     4.5764086817
  - # 4
    frequency:     5.4702173395
  - # 5
    frequency:     5.8502372224
  - # 6
    frequency:     6.2984679472
  - # 7
    frequency:     8.1704172039
  - # 8
    frequency:     8.5843668709
  - # 9
    frequency:     8.6581731795

- q-position: [   -0.5250000,    0.1250000,    0.0250000 ]
  distance_from_gamma:  0.165214056
  weight: 2    
  band:
  - # 1
    frequency:     3.4714136466
  - # 2
    frequency:     3.7650784403
  - # 3
    frequency:     4.5636485225
  - # 4
    frequency:     5.4572702183
  - # 5
    frequency:     5.8668404470
  - # 6
    frequency:     6.2906275892
  - # 7
    frequency:     8.1742802609
  - # 8
    frequency:     8.5813182833
  - # 9
    frequency:     8.6752888238

- q-position: [   -0.4750000,    0.1250000,    0.0250000 ]
  distance_from_gamma:  0.148335535
  weight: 2    
  band:
  - # 1
    frequency:     3.4130588977
  - # 2
    frequency:     3.5332383040
  - # 3
    frequency:     4.5045132126
  - # 4
    frequency:     5.4068846961
  - # 5
    frequency:     5.9195355972
  - # 6
    frequency:     6.2578975924
  - # 7
    frequency:     8.1896859077
  - # 8
    frequency:     8.5624893544
  - # 9
    frequency:     8.7595296036

- q-position: [   -0.4250000,    0.1250000,    0.0250000 ]
  distance_from_gamma:  0.131590298
  weight: 2    
  band:
  - # 1
    frequency:     3.1742427675
  - # 2
    frequency:     3.2909498676
  - # 3
    frequency:     4.3765842117
  - # 4
    frequency:     5.3415239535
  - # 5
    frequency:     5.9429700692
  - # 6
    frequency:     6.2320029780
  - # 7
    frequency:     8.2161009935
  - # 8
    frequency:     8.5327880250
  - # 9
    frequency:     8.9059998710

- q-position: [   -0.3750000,    0.1250000,    0.0250000 ]
  distance_from_gamma:  0.115036564
  weight: 2    
  band:
  - # 1
    frequency:     2.7453167482
  - # 2
    frequency:     3.0832843472
  - # 3
    frequency:     4.1496894377
  - # 4
    frequency:     5.2676752362
  - # 5
    frequency:     5.9037911971
  - # 6
    frequency:     6.2536769623
  - # 7
    frequency:     8.2508977156
  - # 8
    frequency:     8.4984784486
  - # 9
    frequency:     9.1004354765

- q-position: [   -0.3250000,    0.1250000,    0.0250000 ]
  distance_from_gamma:  0.098770667
  weight: 2    
  band:
  - # 1
    frequency:     2.2860384342
  - # 2
    frequency:     2.7855200080
  - # 3
    frequency:     3.8114833416
  - # 4
    frequency:     5.1888132537
  - # 5
    frequency:     5.8007201852
  - # 6
    frequency:     6.3420571471
  - # 7
    frequency:     8.2883868970
  - # 8
    frequency:     8.4645418229
  - # 9
    frequency:     9.3204591132

- q-position: [   -0.2750000,    0.1250000,    0.0250000 ]
  distance_from_gamma:  0.082962083
  weight: 2    
  band:
  - # 1
    frequency:     1.8280648152
  - # 2
    frequency:     2.4097284584
  - # 3
    frequency:     3.3809343498
  - # 4
    frequency:     5.1103239171
  - # 5
    frequency:     5.6497406610
  - # 6
    frequency:     6.4824546225
  - # 7
    frequency:     8.3207192953
  - # 8
    frequency:     8.4346285107
  - # 9
    frequency:     9.5415506124

- q-position: [   -0.2250000,    0.1250000,    0.0250000 ]
  distance_from_gamma:  0.067930837
  weight: 2    
  band:
  - # 1
    frequency:     1.3998921216
  - # 2
    frequency:     1.9868852512
  - # 3
    frequency:     2.8960707912
  - # 4
    frequency:     5.0390149832
  - # 5
    frequency:     5.4748486923
  - # 6
    frequency:     6.6426038187
  - # 7
    frequency:     8.3403285280
  - # 8
    frequency:     8.4124618570
  - # 9
    frequency:     9.7417053581

- q-position: [   -0.1750000,    0.1250000,    0.0250000 ]
  distance_from_gamma:  0.054326043
  weight: 2    
  band:
  - # 1
    frequency:     1.0324364933
  - # 2
    frequency:     1.5723046924
  - # 3
    frequency:     2.4028914095
  - # 4
    frequency:     4.9819301073
  - # 5
    frequency:     5.3048566117
  - # 6
    frequency:     6.7894448129
  - # 7
    frequency:     8.3459987424
  - # 8
    frequency:     8.3991305432
  - # 9
    frequency:     9.9030265030

- q-position: [   -0.1250000,    0.1250000,    0.0250000 ]
  distance_from_gamma:  0.043507106
  weight: 2    
  band:
  - # 1
    frequency:     0.7647764181
  - # 2
    frequency:     1.2557196838
  - # 3
    frequency:     1.9658961637
  - # 4
    frequency:     4.9450982467
  - # 5
    frequency:     5.1714413795
  - # 6
    frequency:     6.8962401921
  - # 7
    frequency:     8.3478214915
  - # 8
    frequency:     8.3884737330
  - # 9
    frequency:    10.0119726041

- q-position: [   -0.0750000,    0.1250000,    0.0250000 ]
  distance_from_gamma:  0.037937403
  weight: 2    
  band:
  - # 1
    frequency:     0.6479245834
  - # 2
    frequency:     1.1219111687
  - # 3
    frequency:     1.7131422426
  - # 4
    frequency:     4.9306307113
  - # 5
    frequency:     5.1054026223
  - # 6
    frequency:     6.9451694750
  - # 7
    frequency:     8.3519977396
  - # 8
    frequency:     8.3794571129
  - # 9
    frequency:    10.0596230083

- q-position: [   -0.0250000,    0.1250000,    0.0250000 ]
  distance_from_gamma:  0.039880494
  weight: 2    
  band:
  - # 1
    frequency:     0.7139482977
  - # 2
    frequency:     1.1563541963
  - # 3
    frequency:     1.8091977017
  - # 4
    frequency:     4.9354642882
  - # 5
    frequency:     5.1272812322
  - # 6
    frequency:     6.9285252338
  - # 7
    frequency:     8.3511166785
  - # 8
    frequency:     8.3822334572
  - # 9
    frequency:    10.0421402397

- q-position: [    0.0250000,    0.1750000,    0.0250000 ]
  distance_from_gamma:  0.065667222
  weight: 2    
  band:
  - # 1
    frequency:     1.3716390605
  - # 2
    frequency:     1.8346243522
  - # 3
    frequency:     2.8832058780
  - # 4
    frequency:     5.0214541654
  - # 5
    frequency:     5.4498831413
  - # 6
    frequency:     6.6732684555