phonopy:
  version: "2.26.7"
  frequency_unit_conversion_factor: 15.633302
  symmetry_tolerance: 1.00000e-05
  configuration:
    create_displacements: ".true."
    primitive_axes: "auto"
    dim: "4 4 1"

physical_unit:
  atomic_mass: "AMU"
  length: "angstrom"

space_group:
  type: "P1"
  number: 1
  Hall_symbol: "P 1"

primitive_matrix:
- [  1.000000000000000,  0.000000000000000,  0.000000000000000 ]
- [  0.000000000000000,  1.000000000000000,  0.000000000000000 ]
- [  0.000000000000000,  0.000000000000000,  1.000000000000000 ]

supercell_matrix:
- [   4,   0,   0 ]
- [   0,   4,   0 ]
- [   0,   0,   1 ]

primitive_cell:
  lattice:
  - [     3.320000000000000,     0.000000000000000,     0.000000000000000 ] # a
  - [    -1.660000000000000,     2.875204340564340,     0.000000000000000 ] # b
  - [     0.000000000000000,     0.000000000000000,    15.000000000000004 ] # c
  points:
  - symbol: Mo # 1
    coordinates: [  0.656360472503062,  0.328183184520867,  0.500455147105625 ]
    mass: 95.960000
  - symbol: Se # 2
    coordinates: [  0.989670353345120,  0.994833692708317,  0.389220100150980 ]
    mass: 78.960000
  - symbol: Se # 3
    coordinates: [  0.989712767146362,  0.994854919268086,  0.611690486401364 ]
    mass: 78.960000
  reciprocal_lattice: # without 2pi
  - [     0.301204819277108,     0.173900683490851,     0.000000000000000 ] # a*
  - [     0.000000000000000,     0.347801366981702,     0.000000000000000 ] # b*
  - [     0.000000000000000,     0.000000000000000,     0.066666666666667 ] # c*

unit_cell:
  lattice:
  - [     3.320000000000000,     0.000000000000000,     0.000000000000000 ] # a
  - [    -1.660000000000000,     2.875204340564340,     0.000000000000000 ] # b
  - [     0.000000000000000,     0.000000000000000,    15.000000000000000 ] # c
  points:
  - symbol: Mo # 1
    coordinates: [  0.656360472503062,  0.328183184520867,  0.500455147105625 ]
    mass: 95.960000
    reduced_to: 1
  - symbol: Se # 2
    coordinates: [ -0.010329646654880, -0.005166307291682,  0.389220100150981 ]
    mass: 78.960000
    reduced_to: 2
  - symbol: Se # 3
    coordinates: [ -0.010287232853638, -0.005145080731913,  0.611690486401364 ]
    mass: 78.960000
    reduced_to: 3

supercell:
  lattice:
  - [    13.279999999999999,     0.000000000000000,     0.000000000000000 ] # a
  - [    -6.640000000000000,    11.500817362257360,     0.000000000000000 ] # b
  - [     0.000000000000000,     0.000000000000000,    15.000000000000000 ] # c
  points:
  - symbol: Mo # 1
    coordinates: [  0.164090118125765,  0.082045796130217,  0.500455147105625 ]
    mass: 95.960000
    reduced_to: 1
  - symbol: Mo # 2
    coordinates: [  0.414090118125765,  0.082045796130217,  0.500455147105625 ]
    mass: 95.960000
    reduced_to: 1
  - symbol: Mo # 3
    coordinates: [  0.664090118125765,  0.082045796130217,  0.500455147105625 ]
    mass: 95.960000
    reduced_to: 1
  - symbol: Mo # 4
    coordinates: [  0.914090118125765,  0.082045796130217,  0.500455147105625 ]
    mass: 95.960000
    reduced_to: 1
  - symbol: Mo # 5
    coordinates: [  0.164090118125765,  0.332045796130217,  0.500455147105625 ]
    mass: 95.960000
    reduced_to: 1
  - symbol: Mo # 6
    coordinates: [  0.414090118125765,  0.332045796130217,  0.500455147105625 ]
    mass: 95.960000
    reduced_to: 1
  - symbol: Mo # 7
    coordinates: [  0.664090118125765,  0.332045796130217,  0.500455147105625 ]
    mass: 95.960000
    reduced_to: 1
  - symbol: Mo # 8
    coordinates: [  0.914090118125765,  0.332045796130217,  0.500455147105625 ]
    mass: 95.960000
    reduced_to: 1
  - symbol: Mo # 9
    coordinates: [  0.164090118125765,  0.582045796130217,  0.500455147105625 ]
    mass: 95.960000
    reduced_to: 1
  - symbol: Mo # 10
    coordinates: [  0.414090118125765,  0.582045796130217,  0.500455147105625 ]
    mass: 95.960000
    reduced_to: 1
  - symbol: Mo # 11
    coordinates: [  0.664090118125765,  0.582045796130217,  0.500455147105625 ]
    mass: 95.960000
    reduced_to: 1
  - symbol: Mo # 12
    coordinates: [  0.914090118125765,  0.582045796130217,  0.500455147105625 ]
    mass: 95.960000
    reduced_to: 1
  - symbol: Mo # 13
    coordinates: [  0.164090118125765,  0.832045796130217,  0.500455147105625 ]
    mass: 95.960000
    reduced_to: 1
  - symbol: Mo # 14
    coordinates: [  0.414090118125765,  0.832045796130217,  0.500455147105625 ]
    mass: 95.960000
    reduced_to: 1
  - symbol: Mo # 15
    coordinates: [  0.664090118125765,  0.832045796130217,  0.500455147105625 ]
    mass: 95.960000
    reduced_to: 1
  - symbol: Mo # 16
    coordinates: [  0.914090118125765,  0.832045796130217,  0.500455147105625 ]
    mass: 95.960000
    reduced_to: 1
  - symbol: Se # 17
    coordinates: [  0.997417588336280,  0.998708423177079,  0.389220100150981 ]
    mass: 78.960000
    reduced_to: 17
  - symbol: Se # 18
    coordinates: [  0.247417588336280,  0.998708423177079,  0.389220100150981 ]
    mass: 78.960000
    reduced_to: 17
  - symbol: Se # 19
    coordinates: [  0.497417588336280,  0.998708423177079,  0.389220100150981 ]
    mass: 78.960000
    reduced_to: 17
  - symbol: Se # 20
    coordinates: [  0.747417588336280,  0.998708423177079,  0.389220100150981 ]
    mass: 78.960000
    reduced_to: 17
  - symbol: Se # 21
    coordinates: [  0.997417588336280,  0.248708423177079,  0.389220100150981 ]
    mass: 78.960000
    reduced_to: 17
  - symbol: Se # 22
    coordinates: [  0.247417588336280,  0.248708423177079,  0.389220100150981 ]
    mass: 78.960000
    reduced_to: 17
  - symbol: Se # 23
    coordinates: [  0.497417588336280,  0.248708423177079,  0.389220100150981 ]
    mass: 78.960000
    reduced_to: 17
  - symbol: Se # 24
    coordinates: [  0.747417588336280,  0.248708423177079,  0.389220100150981 ]
    mass: 78.960000
    reduced_to: 17
  - symbol: Se # 25
    coordinates: [  0.997417588336280,  0.498708423177079,  0.389220100150981 ]
    mass: 78.960000
    reduced_to: 17
  - symbol: Se # 26
    coordinates: [  0.247417588336280,  0.498708423177079,  0.389220100150981 ]
    mass: 78.960000
    reduced_to: 17
  - symbol: Se # 27
    coordinates: [  0.497417588336280,  0.498708423177079,  0.389220100150981 ]
    mass: 78.960000
    reduced_to: 17
  - symbol: Se # 28
    coordinates: [  0.747417588336280,  0.498708423177079,  0.389220100150981 ]
    mass: 78.960000
    reduced_to: 17
  - symbol: Se # 29
    coordinates: [  0.997417588336280,  0.748708423177079,  0.389220100150981 ]
    mass: 78.960000
    reduced_to: 17
  - symbol: Se # 30
    coordinates: [  0.247417588336280,  0.748708423177079,  0.389220100150981 ]
    mass: 78.960000
    reduced_to: 17
  - symbol: Se # 31
    coordinates: [  0.497417588336280,  0.748708423177079,  0.389220100150981 ]
    mass: 78.960000
    reduced_to: 17
  - symbol: Se # 32
    coordinates: [  0.747417588336280,  0.748708423177079,  0.389220100150981 ]
    mass: 78.960000
    reduced_to: 17
  - symbol: Se # 33
    coordinates: [  0.997428191786590,  0.998713729817022,  0.611690486401364 ]
    mass: 78.960000
    reduced_to: 33
  - symbol: Se # 34
    coordinates: [  0.247428191786591,  0.998713729817022,  0.611690486401364 ]
    mass: 78.960000
    reduced_to: 33
  - symbol: Se # 35
    coordinates: [  0.497428191786591,  0.998713729817022,  0.611690486401364 ]
    mass: 78.960000
    reduced_to: 33
  - symbol: Se # 36
    coordinates: [  0.747428191786590,  0.998713729817022,  0.611690486401364 ]
    mass: 78.960000
    reduced_to: 33
  - symbol: Se # 37
    coordinates: [  0.997428191786590,  0.248713729817022,  0.611690486401364 ]
    mass: 78.960000
    reduced_to: 33
  - symbol: Se # 38
    coordinates: [  0.247428191786591,  0.248713729817022,  0.611690486401364 ]
    mass: 78.960000
    reduced_to: 33
  - symbol: Se # 39
    coordinates: [  0.497428191786591,  0.248713729817022,  0.611690486401364 ]
    mass: 78.960000
    reduced_to: 33
  - symbol: Se # 40
    coordinates: [  0.747428191786590,  0.248713729817022,  0.611690486401364 ]
    mass: 78.960000
    reduced_to: 33
  - symbol: Se # 41
    coordinates: [  0.997428191786590,  0.498713729817022,  0.611690486401364 ]
    mass: 78.960000
    reduced_to: 33
  - symbol: Se # 42
    coordinates: [  0.247428191786591,  0.498713729817022,  0.611690486401364 ]
    mass: 78.960000
    reduced_to: 33
  - symbol: Se # 43
    coordinates: [  0.497428191786591,  0.498713729817022,  0.611690486401364 ]
    mass: 78.960000
    reduced_to: 33
  - symbol: Se # 44
    coordinates: [  0.747428191786590,  0.498713729817022,  0.611690486401364 ]
    mass: 78.960000
    reduced_to: 33
  - symbol: Se # 45
    coordinates: [  0.997428191786590,  0.748713729817022,  0.611690486401364 ]
    mass: 78.960000
    reduced_to: 33
  - symbol: Se # 46
    coordinates: [  0.247428191786591,  0.748713729817022,  0.611690486401364 ]
    mass: 78.960000
    reduced_to: 33
  - symbol: Se # 47
    coordinates: [  0.497428191786591,  0.748713729817022,  0.611690486401364 ]
    mass: 78.960000
    reduced_to: 33
  - symbol: Se # 48
    coordinates: [  0.747428191786590,  0.748713729817022,  0.611690486401364 ]
    mass: 78.960000
    reduced_to: 33

displacements:
- atom:    1
  displacement:
    [   0.0100000000000000,  0.0000000000000000,  0.0000000000000000 ]
- atom:    1
  displacement:
    [  -0.0100000000000000,  0.0000000000000000,  0.0000000000000000 ]
- atom:    1
  displacement:
    [  -0.0050000000000000,  0.0086602540378444,  0.0000000000000000 ]
- atom:    1
  displacement:
    [   0.0050000000000000, -0.0086602540378444,  0.0000000000000000 ]
- atom:    1
  displacement:
    [   0.0000000000000000,  0.0000000000000000,  0.0100000000000000 ]
- atom:    1
  displacement:
    [   0.0000000000000000,  0.0000000000000000, -0.0100000000000000 ]
- atom:   17
  displacement:
    [   0.0100000000000000,  0.0000000000000000,  0.0000000000000000 ]
- atom:   17
  displacement:
    [  -0.0100000000000000,  0.0000000000000000,  0.0000000000000000 ]
- atom:   17
  displacement:
    [  -0.0050000000000000,  0.0086602540378444,  0.0000000000000000 ]
- atom:   17
  displacement:
    [   0.0050000000000000, -0.0086602540378444,  0.0000000000000000 ]
- atom:   17
  displacement:
    [   0.0000000000000000,  0.0000000000000000,  0.0100000000000000 ]
- atom:   17
  displacement:
    [   0.0000000000000000,  0.0000000000000000, -0.0100000000000000 ]
- atom:   33
  displacement:
    [   0.0100000000000000,  0.0000000000000000,  0.0000000000000000 ]
- atom:   33
  displacement:
    [  -0.0100000000000000,  0.0000000000000000,  0.0000000000000000 ]
- atom:   33
  displacement:
    [  -0.0050000000000000,  0.0086602540378444,  0.0000000000000000 ]
- atom:   33
  displacement:
    [   0.0050000000000000, -0.0086602540378444,  0.0000000000000000 ]
- atom:   33
  displacement:
    [   0.0000000000000000,  0.0000000000000000,  0.0100000000000000 ]
- atom:   33
  displacement:
    [   0.0000000000000000,  0.0000000000000000, -0.0100000000000000 ]
